 PROCESS            0  OF           12  WORKING
 PROCESS            3  OF           12  WORKING
 PROCESS            5  OF           12  WORKING
 PROCESS            1  OF           12  WORKING
 PROCESS            2  OF           12  WORKING
 PROCESS            4  OF           12  WORKING
 PROCESS            6  OF           12  WORKING
 PROCESS            7  OF           12  WORKING
 PROCESS            8  OF           12  WORKING
 PROCESS            9  OF           12  WORKING
 PROCESS           10  OF           12  WORKING
 PROCESS           11  OF           12  WORKING

         
 *******************************************************************************
 *                                                                             *
 *                               CRYSTAL14                                     *
 *                      public : 1.0.2 - Feb 23rd, 2013                        *
 *                       HTTP://WWW.CRYSTAL.UNITO.IT                           *
 *                                                                             *
 *                              MAIN AUTHORS                                   *
 *                                                                             *
 *  R. DOVESI(1,11), V.R. SAUNDERS(2), C. ROETTI(1,11), R. ORLANDO(1,11),      *
 *  C.M. ZICOVICH-WILSON(1,3), F. PASCALE(4), B. CIVALLERI(1,11),              *
 *  K. DOLL(5), N.M. HARRISON(2,6), I. J. BUSH(7), Ph. D'ARCO(8),              *
 *  M. LLUNELL(9), M. CAUSA'(10), Y. NOEL(8)                                   *
 *                                                                             *
 *        CONTRIBUTIONS TO THE CURRENT RELEASE HAVE BEEN GIVEN BY              *
 *                                                                             *
 *  L. MASCHIO(1,11), S. CASASSA(1,11), A. ERBA(1,11), M. FERRABONE(1,11),     *
 *  M. DE LA PIERRE(1,11), M. FERRERO(1,11), V. LACIVITA(1,11),                *
 *  J. BAIMA(1,11), E. ALBANESE(1,11), M.F. PEINTINGER(12), R. BAST(13),       *
 *  M. RERAT(14), B. KIRTMAN(15), R. DEMICHELIS(1,16)                          *
 *                                                                             *
 * (1) THEORETICAL CHEMISTRY GROUP - UNIVERSITA' DI TORINO - TORINO (ITALY)    *
 *     http://www.crystal.unito.it                                             *
 * (2) COMPUTATIONAL SCIENCE & ENGINEERING DEPARTMENT - STFC DARESBURY (UK)    *
 *     http://www.stfc.ac.uk/CSE/randd/cmg/CRYSTAL/25806.aspx                  *
 * (3) UNIVERSIDAD AUTONOMA DEL ESTADO DE MORELOS - CUERNAVACA (MEXICO)        *
 * (4) UNIVERSITE' DE LORRAINE - NANCY (FRANCE)                                *
 * (5) UNIVERSITAET ULM - ULM (GERMANY); (6) IMPERIAL COLLEGE - LONDON (UK)    *
 * (7) NAG - OXFORD (UK); (8) UPMC - SORBONNE UNIVERSITES - PARIS (FRANCE)     *
 * (9) UNIVERSIDAD DE BARCELONA - BARCELONA (SPAIN)                            *
 *(10) UNIVERSITA' DI NAPOLI "FEDERICO II" - NAPOLI (ITALY)                    *
 *(11) NIS - NANOSTRUCTURED INTERFACES AND SURFACES - TORINO (ITALY)           *
 *(12) MPI FUER CHEMISCHE ENERGIEKONVERSION - MUELHEIM AN DER RUHR (GERMANY)   *
 *(13) UNIVERSITY OF STOCKHOLM - STOCKHOLM (SWEDEN)                            *
 *(14) UNIVERSITE' DE PAU ET DES PAYS DE L'ADOUR - PAU (FRANCE)                *
 *(15) UNIVERSITY OF CALIFORNIA SANTA BARBARA - SANTA BARBARA (USA)            *
 *(16) CURTIN UNIVERSITY - PERTH (AUSTRALIA)                                   *
 *                                                                             *
 ********************************************************************************
 EEEEEEEEEE STARTING  DATE 10 02 2019 TIME 16:51:38.3
 black P                                                                         

 SLAB CALCULATION
 SYSTEM AND LATTICE                   :  OBLIQUE     
 TWO-SIDED PLANE GROUP N.  1          :  P 1             
 CORRESPONDING SPACE GROUP N.   1

 LATTICE PARAMETERS  (ANGSTROMS AND DEGREES) - CONVENTIONAL CELL
           A              B            GAMMA
        3.27000        4.36000       90.00000


 NUMBER OF IRREDUCIBLE ATOMS IN THE CONVENTIONAL CELL:    8

 INPUT COORDINATES

 ATOM AT. N.              COORDINATES
   1  15     2.500000000000E-01 -4.213700000000E-01  4.320000000000E+00
   2  15     7.500000000000E-01 -7.863000000000E-02  4.320000000000E+00
   3  15     7.500000000000E-01  7.863000000000E-02  2.170000000000E+00
   4  15     2.500000000000E-01  4.213700000000E-01  2.170000000000E+00
   5  15     2.500000000000E-01 -4.213700000000E-01 -1.550000000000E+00
   6  15    -2.500000000000E-01 -7.863000000000E-02 -1.550000000000E+00
   7  15    -2.500000000000E-01  7.863000000000E-02 -3.700000000000E+00
   8  15     2.500000000000E-01  4.213700000000E-01 -3.700000000000E+00

 *******************************************************************************

 << INFORMATION >>: FROM NOW ON, ALL COORDINATES REFER TO THE PRIMITIVE CELL

 *******************************************************************************

 LATTICE PARAMETERS  (ANGSTROMS AND DEGREES) - PRIMITIVE CELL
       A          B          C        ALPHA      BETA     GAMMA        VOLUME
    3.27000    4.36000  500.00000    90.00000  90.00000  90.00000     14.257200

 COORDINATES OF THE EQUIVALENT ATOMS 
 (X AND Y IN FRACTIONARY UNITS, Z IN ANGSTROMS)

 N. ATOM EQUIV AT. N.          X                  Y                  Z

   1   1   1   15 P     2.50000000000E-01 -4.21370000000E-01  4.32000000000E+00

   2   2   1   15 P    -2.50000000000E-01 -7.86300000000E-02  4.32000000000E+00

   3   3   1   15 P    -2.50000000000E-01  7.86300000000E-02  2.17000000000E+00

   4   4   1   15 P     2.50000000000E-01  4.21370000000E-01  2.17000000000E+00

   5   5   1   15 P     2.50000000000E-01 -4.21370000000E-01 -1.55000000000E+00

   6   6   1   15 P    -2.50000000000E-01 -7.86300000000E-02 -1.55000000000E+00

   7   7   1   15 P    -2.50000000000E-01  7.86300000000E-02 -3.70000000000E+00

   8   8   1   15 P     2.50000000000E-01  4.21370000000E-01 -3.70000000000E+00

 NUMBER OF SYMMETRY OPERATORS         :    1
 *******************************************************************************
 * GEOMETRY EDITING - INPUT COORDINATES ARE GIVEN IN ANGSTROM         
 *******************************************************************************
 INFORMATION **** NEW DEFAULT **** FINALRUN 4 FOR GEOMETRY OPTIMIZATIONS
 INFORMATION **** NEW DEFAULT **** OPTGEOM OPTIMIZES BOTH ATOMIC COORDINATES AND CELL PARAMETERS
 INFORMATION **** NEW DEFAULT **** TOL. ON ATOMIC DISP TO REDEFINE REF. GEOMETRY: 0.8 Angs
 INFORMATION **** NEW DEFAULT **** N POINTS TO REDEFINE REF. GEOMETRY: N OF OPT DEGS OF FREEDOM
 INFORMATION **** NEW DEFAULT **** TOL. ON ENERGY TO REDEFINE REF. GEOMETRY: 10**-3*(5*N. ATOMS)

 *******************************************************************************
 * PARTIAL OPTIMIZATION - FRAGMENT OF    6 ATOMS -  INPUT LIST :

   1( 15)   2( 15)   3( 15)   5( 15)   7( 15)   8( 15)

 SYMMETRY MAY BE BROKEN


 FRAGMENT - OPTIMIZATION OF A FRAGMENT OF   6 ATOMS - INPUT DATA:
   1(Z= 15)    2(Z= 15)    3(Z= 15)    5(Z= 15)    7(Z= 15)    8(Z= 15) 

 IMPORTANT INFORMATION:
 THE COORDINATE SYSTEM ADOPTED IN THE OPTIMIZATION IS NOT IN
 GENERAL HOMOGENEOUS UNITS. FOR THIS REASON THE GRADIENT AND 
 HESSIAN MATRIX IN TERMS OF THIS SYSTEM ARE GIVEN WITHOUT
 UNITS. FOR MORE DETAILS SEE THE MANUAL.

 *******************************************************************************
 COMBINED CELL/ATOM OPTIMIZATION CONTROL

 INITIAL TRUST RADIUS         0.50000 MAXIMUM TRUST RADIUS               4.00000
 MAXIMUM GRADIENT COMPONENT   0.00045 MAXIMUM DISPLACEMENT COMPONENT     0.00180
 R.M.S. OF GRADIENT COMPONENT 0.00030 R.M.S. OF DISPLACEMENT COMPONENTS  0.00120
 THRESHOLD ON ENERGY CHANGE 0.100E-06 EXTRAPOLATING POLYNOMIAL ORDER           2
 MAXIMUM ALLOWED NUMBER OF STEPS   -1 SORTING OF ENERGY POINTS:               NO
 ANALYTICAL  GRADIENT                 HESSIAN UPDATING                      BFGS
 STEP SIZE NUMERICAL GRADIENT 0.00100
 INITIAL HESSIAN MATRIX: SCHLEGEL MODEL 2
 *******************************************************************************


 GCALCO - MAX INDICES DIRECT LATTICE VECTOR    96    72     0
 NO.OF VECTORS CREATED 6999 STARS 1368 RMAX   336.59955 BOHR

 GEOMETRY FOR WAVE FUNCTION - DIMENSIONALITY OF THE SYSTEM    2
 (NON PERIODIC DIRECTION: LATTICE PARAMETER FORMALLY SET TO 500)
 *******************************************************************************
 LATTICE PARAMETERS (ANGSTROMS AND DEGREES) - BOHR = 0.5291772083 ANGSTROM
 PRIMITIVE CELL
         A              B              C           ALPHA      BETA       GAMMA 
     3.27000000     4.36000000   500.00000000    90.000000  90.000000  90.000000
 *******************************************************************************
 ATOMS IN THE ASYMMETRIC UNIT    8 - ATOMS IN THE UNIT CELL:    8
     ATOM                 X/A                 Y/B             Z(ANGSTROM)
 *******************************************************************************
      1 T  15 P     2.500000000000E-01 -4.213700000000E-01  4.320000000000E+00
      2 T  15 P    -2.500000000000E-01 -7.863000000000E-02  4.320000000000E+00
      3 T  15 P    -2.500000000000E-01  7.863000000000E-02  2.170000000000E+00
      4 T  15 P     2.500000000000E-01  4.213700000000E-01  2.170000000000E+00
      5 T  15 P     2.500000000000E-01 -4.213700000000E-01 -1.550000000000E+00
      6 T  15 P    -2.500000000000E-01 -7.863000000000E-02 -1.550000000000E+00
      7 T  15 P    -2.500000000000E-01  7.863000000000E-02 -3.700000000000E+00
      8 T  15 P     2.500000000000E-01  4.213700000000E-01 -3.700000000000E+00

 T = ATOM BELONGING TO THE ASYMMETRIC UNIT

 ****    1 SYMMOPS - TRANSLATORS IN FRACTIONAL UNITS
 **** MATRICES AND TRANSLATORS IN THE CRYSTALLOGRAPHIC REFERENCE FRAME
   V INV                    ROTATION MATRICES                   TRANSLATORS
   1   1  1.00  0.00  0.00  0.00  1.00  0.00  0.00  0.00  1.00  0.00  0.00  0.00

 DIRECT LATTICE VECTORS CARTESIAN COMPONENTS (ANGSTROM)
          X                    Y                    Z
   0.327000000000E+01   0.200229751661E-15   0.000000000000E+00
   0.000000000000E+00   0.436000000000E+01   0.000000000000E+00
   0.000000000000E+00   0.000000000000E+00   0.500000000000E+03


 CARTESIAN COORDINATES - PRIMITIVE CELL
 *******************************************************************************
 *      ATOM          X(ANGSTROM)         Y(ANGSTROM)         Z(ANGSTROM)
 *******************************************************************************
    1    15 P     8.175000000000E-01 -1.837173200000E+00  4.320000000000E+00
    2    15 P    -8.175000000000E-01 -3.428268000000E-01  4.320000000000E+00
    3    15 P    -8.175000000000E-01  3.428268000000E-01  2.170000000000E+00
    4    15 P     8.175000000000E-01  1.837173200000E+00  2.170000000000E+00
    5    15 P     8.175000000000E-01 -1.837173200000E+00 -1.550000000000E+00
    6    15 P    -8.175000000000E-01 -3.428268000000E-01 -1.550000000000E+00
    7    15 P    -8.175000000000E-01  3.428268000000E-01 -3.700000000000E+00
    8    15 P     8.175000000000E-01  1.837173200000E+00 -3.700000000000E+00

 *******************************************************************************
 LOCAL ATOMIC FUNCTIONS BASIS SET
 *******************************************************************************
   ATOM   X(AU)   Y(AU)   Z(AU)  N. TYPE  EXPONENT  S COEF   P COEF   D/F/G COEF
 *******************************************************************************
   1 P    1.545  -3.472   8.164
                                  1 S  
                                         9.105E+04 2.538E-04 0.000E+00 0.000E+00
                                         1.365E+04 1.967E-03 0.000E+00 0.000E+00
                                         3.106E+03 1.022E-02 0.000E+00 0.000E+00
                                         8.783E+02 4.140E-02 0.000E+00 0.000E+00
                                         2.846E+02 1.338E-01 0.000E+00 0.000E+00
                                  2 S  
                                         1.012E+02 1.000E+00 0.000E+00 0.000E+00
                                  3 S  
                                         3.898E+01 4.542E-01 0.000E+00 0.000E+00
                                         1.605E+01 2.074E-01 0.000E+00 0.000E+00
                                  4 S  
                                         4.723E+00 1.000E+00 0.000E+00 0.000E+00
                                  5 S  
                                         1.783E+00 1.000E+00 0.000E+00 0.000E+00
                                  6 S  
                                         3.396E-01 1.000E+00 0.000E+00 0.000E+00
                                  7 S  
                                         1.233E-01 1.000E+00 0.000E+00 0.000E+00
                           8-    10 P  
                                         5.284E+02 0.000E+00-2.282E-03 0.000E+00
                                         1.250E+02 0.000E+00-1.818E-02 0.000E+00
                                         3.980E+01 0.000E+00-8.394E-02 0.000E+00
                                         1.466E+01 0.000E+00-2.460E-01 0.000E+00
                                         5.758E+00 0.000E+00-4.366E-01 0.000E+00
                          11-    13 P  
                                         2.312E+00 0.000E+00 1.000E+00 0.000E+00
                          14-    16 P  
                                         8.899E-01 0.000E+00 1.000E+00 0.000E+00
                          17-    19 P  
                                         3.047E-01 0.000E+00 1.000E+00 0.000E+00
                          20-    22 P  
                                         1.008E-01 0.000E+00 1.000E+00 0.000E+00
                          23-    27 D  
                                         2.160E-01 0.000E+00 0.000E+00 1.000E+00
                          28-    32 D  
                                         6.520E-01 0.000E+00 0.000E+00 1.000E+00
   2 P   -1.545  -0.648   8.164
   3 P   -1.545   0.648   4.101
   4 P    1.545   3.472   4.101
   5 P    1.545  -3.472  -2.929
   6 P   -1.545  -0.648  -2.929
   7 P   -1.545   0.648  -6.992
   8 P    1.545   3.472  -6.992
 INFORMATION **** SET_MPP **** PCRYSTAL CALCULATION
 INFORMATION **** READM2 **** NEW DEFAULT: FOCK/KS MATRIX MIXING SET TO 30 %
 INFORMATION **** READM2 **** NEW DEFAULT: FULL DIRECT SCF MODE
 INFORMATION **** READM2 **** NEW DEFAULT: COULOMB BIPOLAR BUFFER SET TO 32 Mb
 INFORMATION **** READM2 **** NEW DEFAULT: EXCHANGE BIPOLAR BUFFER SET TO 32 Mb

 *******************************************************************************
 NEW DEFAULT: DFT INTEGRATION GRID INCREASED TO XLGRID
 NEW DEFAULT: LEVEL SHIFTER 6 0
 IF THE SYSTEM IS A METAL USE KEYWORD NOSHIFT
 *******************************************************************************

 INFORMATION **** GRIMME **** GRIMME DISPERSION CORRECTION FOR ENER AND GRAD

 GRIMME DISPERSION CORRECTION PARAMETERS

 C6 COEFFICIENTS (KJ/MOL) AND VDW RADII (ANG)

                            ELEMENT  C6 COEF  RADIUS
                              P      7.840     1.705
 INFORMATION **** GUESSP **** SCF GUESS FROM A PREVIOUS RUN DENSITY MATRIX
 INFORMATION **** TOLINTEG **** COULOMB AND EXCHANGE SERIES TOLERANCES MODIFIED
 INFORMATION **** MAXCYCLE **** MAX NUMBER OF SCF CYCLES SET TO          60
 INFORMATION **** READM2 **** LEVEL SHIFTING DISABLED BY ANDERSON
 INFORMATION **** EXCHSIZE **** EXCHANGE BIPOLAR BUFFER SIZE SET TO    30000000
 INFORMATION **** BIPOSIZE **** COULOMB BIPOLAR BUFFER SET TO    30000000
 *******************************************************************************
 N. OF ATOMS PER CELL         8  COULOMB OVERLAP TOL         (T1) 10**  -10
 NUMBER OF SHELLS           112  COULOMB PENETRATION TOL     (T2) 10**  -10
 NUMBER OF AO               256  EXCHANGE OVERLAP TOL        (T3) 10**  -10
 N. OF ELECTRONS PER CELL   120  EXCHANGE PSEUDO OVP (F(G))  (T4) 10**  -25
 CORE ELECTRONS PER CELL     80  EXCHANGE PSEUDO OVP (P(G))  (T5) 10**  -75
 N. OF SYMMETRY OPERATORS     1  POLE ORDER IN MONO ZONE                  4
 *******************************************************************************
 TYPE OF CALCULATION :  RESTRICTED CLOSED SHELL
 KOHN-SHAM HAMILTONIAN

 (EXCHANGE)[CORRELATION] FUNCTIONAL:(PERDEW-BURKE-ERNZERHOF)[PERDEW-BURKE-ERNZERHOF]


 HYBRID EXCHANGE - PERCENTAGE OF FOCK EXCHANGE    25.0000

 CAPPA:IS1  8;IS2  8;IS3  1; K PTS MONK NET  34; SYMMOPS:K SPACE   2;G SPACE   1

 *******************************************************************************
 MAX NUMBER OF SCF CYCLES      60  CONVERGENCE ON DELTAP        10**-16
 WEIGHT OF F(I) IN F(I+1)      80% CONVERGENCE ON ENERGY        10**- 7
 SHRINK. FACT.(MONKH.)    8  8  1  NUMBER OF K POINTS IN THE IBZ     34
 SHRINKING FACTOR(GILAT NET)    8  NUMBER OF K POINTS(GILAT NET)     34
 *******************************************************************************
 *** K POINTS COORDINATES (OBLIQUE COORDINATES IN UNITS OF IS =  8)
   1-R(  0  0  0)   2-C(  1  0  0)   3-C(  2  0  0)   4-C(  3  0  0)
   5-R(  4  0  0)   6-C(  0  1  0)   7-C(  1  1  0)   8-C(  2  1  0)
   9-C(  3  1  0)  10-C(  4  1  0)  11-C(  5  1  0)  12-C(  6  1  0)
  13-C(  7  1  0)  14-C(  0  2  0)  15-C(  1  2  0)  16-C(  2  2  0)
  17-C(  3  2  0)  18-C(  4  2  0)  19-C(  5  2  0)  20-C(  6  2  0)
  21-C(  7  2  0)  22-C(  0  3  0)  23-C(  1  3  0)  24-C(  2  3  0)
  25-C(  3  3  0)  26-C(  4  3  0)  27-C(  5  3  0)  28-C(  6  3  0)
  29-C(  7  3  0)  30-R(  0  4  0)  31-C(  1  4  0)  32-C(  2  4  0)
  33-C(  3  4  0)  34-R(  4  4  0)

 DIRECT LATTICE VECTORS COMPON. (A.U.)     RECIP. LATTICE VECTORS COMPON. (A.U.) 
        X            Y            Z              X            Y            Z
    6.1794045    0.0000000    0.0000000      1.0167946    0.0000000    0.0000000
    0.0000000    8.2392059    0.0000000     -0.0000000    0.7625960    0.0000000
    0.0000000    0.0000000  944.8630670      0.0000000    0.0000000    0.0066498

 DISK SPACE FOR EIGENVECTORS (FTN 10)     4194304 REALS

 SYMMETRY ADAPTION OF THE BLOCH FUNCTIONS DISABLED
 TTTTTTTTTTTTTTTTTTTTTTTTTTTTTT gordsh1     TELAPSE        0.03 TCPU        0.01

 MATRIX SIZE: P(G) 3532596, F(G)  511334, P(G) IRR 1791610, F(G) IRR  517262
 MAX G-VECTOR INDEX FOR 1- AND 2-ELECTRON INTEGRALS 247

 TTTTTTTTTTTTTTTTTTTTTTTTTTTTTT INPUT       TELAPSE        0.04 TCPU        0.01

 NEIGHBORS OF THE NON-EQUIVALENT ATOMS

 N = NUMBER OF NEIGHBORS AT DISTANCE R
    ATOM  N     R/ANG      R/AU   NEIGHBORS (ATOM LABELS AND CELL INDICES)
   1 P    2     2.2150     4.1858    2 P    0 0 0    2 P    1 0 0
   1 P    1     2.2567     4.2645    4 P    0-1 0
   1 P    2     3.2700     6.1794    1 P   -1 0 0    1 P    1 0 0
   1 P    2     3.2993     6.2347    2 P    0-1 0    2 P    1-1 0
   1 P    4     3.4710     6.5593    3 P    0 0 0    3 P    1 0 0    3 P    0-1 0
                                     3 P    1-1 0
   1 P    2     3.9731     7.5081    4 P   -1-1 0    4 P    1-1 0

   2 P    2     2.2150     4.1858    1 P    0 0 0    1 P   -1 0 0
   2 P    1     2.2567     4.2645    3 P    0 0 0
   2 P    2     3.2700     6.1794    2 P   -1 0 0    2 P    1 0 0
   2 P    2     3.2993     6.2347    1 P    0 1 0    1 P   -1 1 0
   2 P    4     3.4710     6.5593    4 P    0 0 0    4 P   -1 0 0    4 P    0-1 0
                                     4 P   -1-1 0
   2 P    2     3.9731     7.5081    3 P    1 0 0    3 P   -1 0 0

   3 P    2     2.2150     4.1858    4 P    0 0 0    4 P   -1 0 0
   3 P    1     2.2567     4.2645    2 P    0 0 0
   3 P    2     3.2700     6.1794    3 P   -1 0 0    3 P    1 0 0
   3 P    2     3.2993     6.2347    4 P    0-1 0    4 P   -1-1 0
   3 P    4     3.4710     6.5593    1 P    0 0 0    1 P   -1 0 0    1 P    0 1 0
                                     1 P   -1 1 0
   3 P    1     3.7827     7.1482    6 P    0 0 0

   4 P    2     2.2150     4.1858    3 P    0 0 0    3 P    1 0 0
   4 P    1     2.2567     4.2645    1 P    0 1 0
   4 P    2     3.2700     6.1794    4 P   -1 0 0    4 P    1 0 0
   4 P    2     3.2993     6.2347    3 P    0 1 0    3 P    1 1 0
   4 P    4     3.4710     6.5593    2 P    0 0 0    2 P    1 0 0    2 P    0 1 0
                                     2 P    1 1 0
   4 P    1     3.7827     7.1482    5 P    0 1 0

   5 P    2     2.2150     4.1858    6 P    0 0 0    6 P    1 0 0
   5 P    1     2.2567     4.2645    8 P    0-1 0
   5 P    2     3.2700     6.1794    5 P   -1 0 0    5 P    1 0 0
   5 P    2     3.2993     6.2347    6 P    0-1 0    6 P    1-1 0
   5 P    4     3.4710     6.5593    7 P    0 0 0    7 P    1 0 0    7 P    0-1 0
                                     7 P    1-1 0
   5 P    1     3.7827     7.1482    4 P    0-1 0

   6 P    2     2.2150     4.1858    5 P    0 0 0    5 P   -1 0 0
   6 P    1     2.2567     4.2645    7 P    0 0 0
   6 P    2     3.2700     6.1794    6 P   -1 0 0    6 P    1 0 0
   6 P    2     3.2993     6.2347    5 P    0 1 0    5 P   -1 1 0
   6 P    4     3.4710     6.5593    8 P    0 0 0    8 P   -1 0 0    8 P    0-1 0
                                     8 P   -1-1 0
   6 P    1     3.7827     7.1482    3 P    0 0 0

   7 P    2     2.2150     4.1858    8 P    0 0 0    8 P   -1 0 0
   7 P    1     2.2567     4.2645    6 P    0 0 0
   7 P    2     3.2700     6.1794    7 P   -1 0 0    7 P    1 0 0
   7 P    2     3.2993     6.2347    8 P    0-1 0    8 P   -1-1 0
   7 P    4     3.4710     6.5593    5 P    0 0 0    5 P   -1 0 0    5 P    0 1 0
                                     5 P   -1 1 0
   7 P    2     3.9731     7.5081    6 P   -1 0 0    6 P    1 0 0

   8 P    2     2.2150     4.1858    7 P    0 0 0    7 P    1 0 0
   8 P    1     2.2567     4.2645    5 P    0 1 0
   8 P    2     3.2700     6.1794    8 P   -1 0 0    8 P    1 0 0
   8 P    2     3.2993     6.2347    7 P    0 1 0    7 P    1 1 0
   8 P    4     3.4710     6.5593    6 P    0 0 0    6 P    1 0 0    6 P    0 1 0
                                     6 P    1 1 0
   8 P    2     3.9731     7.5081    5 P    1 1 0    5 P   -1 1 0


 SYMMETRY ALLOWED ELASTIC DISTORTION 1
  0.7071068  0.0000000
  0.0000000  0.7071068

 SYMMETRY ALLOWED ELASTIC DISTORTION 2
  0.7071068  0.0000000
  0.0000000 -0.7071068

 SYMMETRY ALLOWED ELASTIC DISTORTION 3
  0.0000000  0.7071068
  0.7071068  0.0000000

 SYMMETRY ALLOWED INTERNAL DEGREE(S) OF FREEDOM:  18
 TTTTTTTTTTTTTTTTTTTTTTTTTTTTTT SYMM        TELAPSE        0.04 TCPU        0.01
 TTTTTTTTTTTTTTTTTTTTTTTTTTTTTT INT_SCREEN  TELAPSE        0.04 TCPU        0.02

 *******************************************************************************
 *                             OPTIMIZATION STARTS                             *
 *******************************************************************************
 RECLASIFICATION OF INDICES FOR INTEGRAL CALC ACCORDING TO DIFFERENT CRITERIA:
           FIXDELTE                  FIXDELTX              FIXDELTN
          0.10000000               0.80000000                 21
 DEFAULT MAX NUM OF POINTS  100
 *******************************************************************************

 *******************************************************************************
 COORDINATE AND CELL OPTIMIZATION - POINT    1
 INFORMATION **** EXCBUF **** EXCH. BIPO BUFFER: WORDS USED =     3012336

 DFT PARAMETERS

     ATOM       ELECTRONS   NET CHARGE   R(ANGSTROM)
   1  15  P      15.0000      0.0000     1.10000000

 SIZE OF GRID=     238448
 TTTTTTTTTTTTTTTTTTTTTTTTTTTTTT MAKE_GRID2  TELAPSE        0.69 TCPU        0.66
 BECKE WEIGHT FUNCTION
 RADSAFE =     2.00
 TOLERANCES - DENSITY:10**- 6; POTENTIAL:10**- 9; GRID WGT:10**-14

 RADIAL INTEGRATION  - INTERVALS (POINTS,UPPER LIMIT):            1( 75,  4.0*R)

 ANGULAR INTEGRATION - INTERVALS (ACCURACY LEVEL [N. POINTS] UPPER LIMIT):
  1(  4[  86]   0.2)  2(  8[ 194]   0.5)  3( 12[ 350]   0.9)  4( 16[ 974]   3.5)
  5( 12[ 350]9999.0)

 *******************************************************************************
 black P                                                                         
 CRYSTAL - SCF - TYPE OF CALCULATION :  RESTRICTED CLOSED SHELL
 *******************************************************************************

 CAPPA:IS1  8;IS2  8;IS3  1; K PTS MONK NET  34; SYMMOPS:K SPACE   2;G SPACE   1

 TTTTTTTTTTTTTTTTTTTTTTTTTTTTTT SDIK        TELAPSE        0.78 TCPU        0.75

 INFORMATION FROM INTEGRAL EVALUATION

 RESTART FROM A PREVIOUS DENSITY MATRIX - DEP ACTIVE
 NUMBER OF COUPLE SETS (NEW, OLD, FOUND):    5508    5600    5508
 NUMBER OF IRREDUCIBLE G VECTORS        :  292530  284654  273476
 CHARGE NORMALIZATION FACTOR   1.01761078
 TOTAL ATOMIC CHARGES:
  14.6788954  14.6778375  14.7845978  14.7807977  15.2988505  15.2948226
  15.2426197  15.2415789
 TTTTTTTTTTTTTTTTTTTTTTTTTTTTTT MOQGAD      TELAPSE        0.85 TCPU        0.83
 TTTTTTTTTTTTTTTTTTTTTTTTTTTTTT SHELLXN     TELAPSE      669.98 TCPU      668.36
 TTTTTTTTTTTTTTTTTTTTTTTTTTTTTT MONMO3      TELAPSE      782.68 TCPU      780.79
 NUMERICALLY INTEGRATED DENSITY    119.9999891306
 TTTTTTTTTTTTTTTTTTTTTTTTTTTTTT NUMDFT      TELAPSE      785.34 TCPU      783.45
 CYC   0 ETOT(AU) -2.755196697258E+03 DETOT -2.76E+03 tst  0.00E+00 PX  1.00E+00
 TTTTTTTTTTTTTTTTTTTTTTTTTTTTTT FDIK        TELAPSE      786.16 TCPU      784.26
 POSSIBLY CONDUCTING STATE - EFERMI(AU) -9.8706091E-01 (RES. CHARGE  5.43E-11;IT. 14)
 TTTTTTTTTTTTTTTTTTTTTTTTTTTTTT PDIG        TELAPSE      786.21 TCPU      784.31
 CHARGE NORMALIZATION FACTOR   1.00000000
 TOTAL ATOMIC CHARGES:
  25.0392952  25.0389631  14.9794366  14.9801115   9.9840556   9.9840814
   9.9970249   9.9970316
 TTTTTTTTTTTTTTTTTTTTTTTTTTTTTT MOQGAD      TELAPSE      786.22 TCPU      784.32
 TTTTTTTTTTTTTTTTTTTTTTTTTTTTTT SHELLXN     TELAPSE     1454.03 TCPU     1450.53
 TTTTTTTTTTTTTTTTTTTTTTTTTTTTTT MONMO3      TELAPSE     1568.58 TCPU     1564.81
 NUMERICALLY INTEGRATED DENSITY    119.9996857264
 TTTTTTTTTTTTTTTTTTTTTTTTTTTTTT NUMDFT      TELAPSE     1571.17 TCPU     1567.40
 CYC   1 ETOT(AU) -2.125665133292E+03 DETOT  6.30E+02 tst  0.00E+00 PX  1.63E+01
 TTTTTTTTTTTTTTTTTTTTTTTTTTTTTT FDIK        TELAPSE     1571.41 TCPU     1567.64
 POSSIBLY CONDUCTING STATE - EFERMI(AU) -4.0621862E+00 (RES. CHARGE  1.28E-13;IT. 10)
 TTTTTTTTTTTTTTTTTTTTTTTTTTTTTT PDIG        TELAPSE     1571.47 TCPU     1567.69
 CHARGE NORMALIZATION FACTOR   1.00000000
 TOTAL ATOMIC CHARGES:
   2.0260841   2.0259593   4.0159476   4.0112342  15.0880825  15.1957717
  38.8041039  38.8328167
 TTTTTTTTTTTTTTTTTTTTTTTTTTTTTT MOQGAD      TELAPSE     1571.48 TCPU     1567.70
 TTTTTTTTTTTTTTTTTTTTTTTTTTTTTT SHELLXN     TELAPSE     2238.91 TCPU     2233.55
 TTTTTTTTTTTTTTTTTTTTTTTTTTTTTT MONMO3      TELAPSE     2353.26 TCPU     2347.63
 NUMERICALLY INTEGRATED DENSITY    119.9991014395
 TTTTTTTTTTTTTTTTTTTTTTTTTTTTTT NUMDFT      TELAPSE     2355.86 TCPU     2350.22
 CYC   2 ETOT(AU)  9.572307173227E+02 DETOT  3.08E+03 tst  7.94E+01 PX  3.80E+02
 TTTTTTTTTTTTTTTTTTTTTTTTTTTTTT FDIK        TELAPSE     2356.11 TCPU     2350.46
 POSSIBLY CONDUCTING STATE - EFERMI(AU) -1.0522766E+01 (RES. CHARGE  5.56E-12;IT.  8)
 TTTTTTTTTTTTTTTTTTTTTTTTTTTTTT PDIG        TELAPSE     2356.16 TCPU     2350.52
 CHARGE NORMALIZATION FACTOR   1.00000000
 TOTAL ATOMIC CHARGES:
  42.5980247  42.6354782  13.2956712  13.3532897   2.0337953   2.0336265
   2.0242314   2.0258830
 TTTTTTTTTTTTTTTTTTTTTTTTTTTTTT MOQGAD      TELAPSE     2356.17 TCPU     2350.53
 TTTTTTTTTTTTTTTTTTTTTTTTTTTTTT SHELLXN     TELAPSE     3023.63 TCPU     3016.40
 TTTTTTTTTTTTTTTTTTTTTTTTTTTTTT MONMO3      TELAPSE     3137.91 TCPU     3130.40
 NUMERICALLY INTEGRATED DENSITY    119.9992444566
 TTTTTTTTTTTTTTTTTTTTTTTTTTTTTT NUMDFT      TELAPSE     3140.50 TCPU     3132.99
 CYC   3 ETOT(AU)  1.662526576767E+03 DETOT  7.05E+02 tst  1.57E+02 PX  3.80E+02
 ANDERSON MIX: BETA=   5.368472044774E-01
 TTTTTTTTTTTTTTTTTTTTTTTTTTTTTT FDIK        TELAPSE     3140.74 TCPU     3133.23
 POSSIBLY CONDUCTING STATE - EFERMI(AU) -5.0718372E+00 (RES. CHARGE  2.61E-11;IT.  8)
 TTTTTTTTTTTTTTTTTTTTTTTTTTTTTT PDIG        TELAPSE     3140.79 TCPU     3133.28
 CHARGE NORMALIZATION FACTOR   1.00000000
 TOTAL ATOMIC CHARGES:
   9.9490977   9.9778537  35.5404732  35.4977771  10.5234557  10.4776669
   4.0126103   4.0210654
 TTTTTTTTTTTTTTTTTTTTTTTTTTTTTT MOQGAD      TELAPSE     3140.80 TCPU     3133.29
 TTTTTTTTTTTTTTTTTTTTTTTTTTTTTT SHELLXN     TELAPSE     3808.24 TCPU     3799.14
 TTTTTTTTTTTTTTTTTTTTTTTTTTTTTT MONMO3      TELAPSE     3922.09 TCPU     3912.72
 NUMERICALLY INTEGRATED DENSITY    119.9999537271
 TTTTTTTTTTTTTTTTTTTTTTTTTTTTTT NUMDFT      TELAPSE     3924.69 TCPU     3915.31
 CYC   4 ETOT(AU) -1.717742348411E+03 DETOT -3.38E+03 tst  6.82E+01 PX  2.56E+02
 ANDERSON MIX: BETA=  -3.794174702323E-01
 TTTTTTTTTTTTTTTTTTTTTTTTTTTTTT FDIK        TELAPSE     3924.95 TCPU     3915.57
 POSSIBLY CONDUCTING STATE - EFERMI(AU) -2.7942757E+00 (RES. CHARGE  7.11E-14;IT.  8)
 TTTTTTTTTTTTTTTTTTTTTTTTTTTTTT PDIG        TELAPSE     3925.00 TCPU     3915.63
 CHARGE NORMALIZATION FACTOR   1.00000000
 TOTAL ATOMIC CHARGES:
  10.5306794  10.4882369   4.1085203   4.1139299  12.9905631  13.0117378
  32.3998899  32.3564427
 TTTTTTTTTTTTTTTTTTTTTTTTTTTTTT MOQGAD      TELAPSE     3925.01 TCPU     3915.64
 TTTTTTTTTTTTTTTTTTTTTTTTTTTTTT SHELLXN     TELAPSE     4589.74 TCPU     4578.76
 TTTTTTTTTTTTTTTTTTTTTTTTTTTTTT MONMO3      TELAPSE     4706.38 TCPU     4695.13
 NUMERICALLY INTEGRATED DENSITY    119.9990838788
 TTTTTTTTTTTTTTTTTTTTTTTTTTTTTT NUMDFT      TELAPSE     4708.97 TCPU     4697.71
 CYC   5 ETOT(AU) -1.195683851411E+03 DETOT  5.22E+02 tst  9.43E+01 PX  3.14E+02
 ANDERSON MIX: BETA=   5.648135136520E-01
 TTTTTTTTTTTTTTTTTTTTTTTTTTTTTT FDIK        TELAPSE     4709.23 TCPU     4697.97
 POSSIBLY CONDUCTING STATE - EFERMI(AU) -1.7798776E+00 (RES. CHARGE  1.40E-11;IT. 10)
 TTTTTTTTTTTTTTTTTTTTTTTTTTTTTT PDIG        TELAPSE     4709.28 TCPU     4698.02
 CHARGE NORMALIZATION FACTOR   1.00000000
 TOTAL ATOMIC CHARGES:
  14.8856216  14.9123701  11.5335495  11.5814285  22.9205524  22.8961400
  10.6297412  10.6405967
 TTTTTTTTTTTTTTTTTTTTTTTTTTTTTT MOQGAD      TELAPSE     4709.29 TCPU     4698.03
 TTTTTTTTTTTTTTTTTTTTTTTTTTTTTT SHELLXN     TELAPSE     5373.95 TCPU     5361.11
 TTTTTTTTTTTTTTTTTTTTTTTTTTTTTT MONMO3      TELAPSE     5490.56 TCPU     5477.43
 NUMERICALLY INTEGRATED DENSITY    119.9994144014
 TTTTTTTTTTTTTTTTTTTTTTTTTTTTTT NUMDFT      TELAPSE     5493.15 TCPU     5480.02
 CYC   6 ETOT(AU) -2.813853012381E+03 DETOT -1.62E+03 tst  3.74E+01 PX  4.02E+02
 ANDERSON MIX: BETA=  -3.287804579630E-02
 TTTTTTTTTTTTTTTTTTTTTTTTTTTTTT FDIK        TELAPSE     5493.39 TCPU     5480.26
 POSSIBLY CONDUCTING STATE - EFERMI(AU) -1.1924037E+00 (RES. CHARGE  4.28E-12;IT. 10)
 TTTTTTTTTTTTTTTTTTTTTTTTTTTTTT PDIG        TELAPSE     5493.44 TCPU     5480.31
 CHARGE NORMALIZATION FACTOR   1.00000000
 TOTAL ATOMIC CHARGES:
  21.4257038  21.4573677  15.9415503  15.9357053  11.1895428  11.2003120
  11.4348753  11.4149428
 TTTTTTTTTTTTTTTTTTTTTTTTTTTTTT MOQGAD      TELAPSE     5493.45 TCPU     5480.32
 TTTTTTTTTTTTTTTTTTTTTTTTTTTTTT SHELLXN     TELAPSE     6158.00 TCPU     6143.28
 TTTTTTTTTTTTTTTTTTTTTTTTTTTTTT MONMO3      TELAPSE     6274.88 TCPU     6259.89
 NUMERICALLY INTEGRATED DENSITY    119.9990818892
 TTTTTTTTTTTTTTTTTTTTTTTTTTTTTT NUMDFT      TELAPSE     6277.48 TCPU     6262.48
 CYC   7 ETOT(AU) -2.620349737468E+03 DETOT  1.94E+02 tst  8.20E+00 PX  5.32E+01
 ANDERSON MIX: BETA=   8.215479740193E-01
 TTTTTTTTTTTTTTTTTTTTTTTTTTTTTT FDIK        TELAPSE     6277.74 TCPU     6262.74
 POSSIBLY CONDUCTING STATE - EFERMI(AU) -1.1924828E+00 (RES. CHARGE  2.84E-14;IT.  6)
 TTTTTTTTTTTTTTTTTTTTTTTTTTTTTT PDIG        TELAPSE     6277.79 TCPU     6262.79
 CHARGE NORMALIZATION FACTOR   1.00000000
 TOTAL ATOMIC CHARGES:
  14.6457035  14.6395210  13.9585282  13.9603334  16.3319867  16.3290070
  15.0654223  15.0694980
 TTTTTTTTTTTTTTTTTTTTTTTTTTTTTT MOQGAD      TELAPSE     6277.80 TCPU     6262.80
 TTTTTTTTTTTTTTTTTTTTTTTTTTTTTT SHELLXN     TELAPSE     6942.42 TCPU     6925.83
 TTTTTTTTTTTTTTTTTTTTTTTTTTTTTT MONMO3      TELAPSE     7059.94 TCPU     7043.08
 NUMERICALLY INTEGRATED DENSITY    119.9990682765
 TTTTTTTTTTTTTTTTTTTTTTTTTTTTTT NUMDFT      TELAPSE     7062.54 TCPU     7045.67
 CYC   8 ETOT(AU) -2.914777489257E+03 DETOT -2.94E+02 tst  9.98E-01 PX  4.54E+01
 ANDERSON MIX: BETA=   1.296700867527E-01
 TTTTTTTTTTTTTTTTTTTTTTTTTTTTTT FDIK        TELAPSE     7062.77 TCPU     7045.90
 POSSIBLY CONDUCTING STATE - EFERMI(AU) -1.3327315E+00 (RES. CHARGE  2.73E-12;IT. 28)
 TTTTTTTTTTTTTTTTTTTTTTTTTTTTTT PDIG        TELAPSE     7062.82 TCPU     7045.95
 CHARGE NORMALIZATION FACTOR   1.00000000
 TOTAL ATOMIC CHARGES:
  14.3729491  14.3734666  16.3555152  16.3618710  15.6471905  15.6485632
  13.6193195  13.6211250
 TTTTTTTTTTTTTTTTTTTTTTTTTTTTTT MOQGAD      TELAPSE     7062.83 TCPU     7045.96
 TTTTTTTTTTTTTTTTTTTTTTTTTTTTTT SHELLXN     TELAPSE     7727.23 TCPU     7708.77
 TTTTTTTTTTTTTTTTTTTTTTTTTTTTTT MONMO3      TELAPSE     7844.14 TCPU     7825.41
 NUMERICALLY INTEGRATED DENSITY    119.9990101708
 TTTTTTTTTTTTTTTTTTTTTTTTTTTTTT NUMDFT      TELAPSE     7846.73 TCPU     7828.00
 CYC   9 ETOT(AU) -2.936057116864E+03 DETOT -2.13E+01 tst  1.19E+00 PX  3.53E+01
 ANDERSON MIX: BETA=   3.177919929731E-01
 TTTTTTTTTTTTTTTTTTTTTTTTTTTTTT FDIK        TELAPSE     7846.98 TCPU     7828.25
 POSSIBLY CONDUCTING STATE - EFERMI(AU) -1.2785241E+00 (RES. CHARGE  5.77E-11;IT. 12)
 TTTTTTTTTTTTTTTTTTTTTTTTTTTTTT PDIG        TELAPSE     7847.04 TCPU     7828.30
 CHARGE NORMALIZATION FACTOR   1.00000000
 TOTAL ATOMIC CHARGES:
  14.8606439  14.8615009  15.6162398  15.6233721  15.4072639  15.4016452
  14.1141700  14.1151643
 TTTTTTTTTTTTTTTTTTTTTTTTTTTTTT MOQGAD      TELAPSE     7847.05 TCPU     7828.31
 TTTTTTTTTTTTTTTTTTTTTTTTTTTTTT SHELLXN     TELAPSE     8511.39 TCPU     8491.07
 TTTTTTTTTTTTTTTTTTTTTTTTTTTTTT MONMO3      TELAPSE     8628.33 TCPU     8607.73
 NUMERICALLY INTEGRATED DENSITY    119.9989824258
 TTTTTTTTTTTTTTTTTTTTTTTTTTTTTT NUMDFT      TELAPSE     8630.92 TCPU     8610.32
 CYC  10 ETOT(AU) -2.944154790826E+03 DETOT -8.10E+00 tst  2.45E-01 PX  2.27E+01
 ANDERSON MIX: BETA=  -1.041147314680E-01
 TTTTTTTTTTTTTTTTTTTTTTTTTTTTTT FDIK        TELAPSE     8631.15 TCPU     8610.54
 POSSIBLY CONDUCTING STATE - EFERMI(AU) -1.4365579E+00 (RES. CHARGE  8.05E-12;IT. 10)
 TTTTTTTTTTTTTTTTTTTTTTTTTTTTTT PDIG        TELAPSE     8631.20 TCPU     8610.60
 CHARGE NORMALIZATION FACTOR   1.00000000
 TOTAL ATOMIC CHARGES:
  13.7590038  13.7587611  15.2038535  15.2095804  16.2254123  16.2245173
  14.8095958  14.8092760
 TTTTTTTTTTTTTTTTTTTTTTTTTTTTTT MOQGAD      TELAPSE     8631.21 TCPU     8610.61
 TTTTTTTTTTTTTTTTTTTTTTTTTTTTTT SHELLXN     TELAPSE     9295.81 TCPU     9273.62
 TTTTTTTTTTTTTTTTTTTTTTTTTTTTTT MONMO3      TELAPSE     9412.36 TCPU     9389.89
 NUMERICALLY INTEGRATED DENSITY    119.9989717620
 TTTTTTTTTTTTTTTTTTTTTTTTTTTTTT NUMDFT      TELAPSE     9414.96 TCPU     9392.49
 CYC  11 ETOT(AU) -2.942183043594E+03 DETOT  1.97E+00 tst  1.08E+00 PX  2.09E+01
 ANDERSON MIX: BETA=   8.202964872107E-01
 TTTTTTTTTTTTTTTTTTTTTTTTTTTTTT FDIK        TELAPSE     9415.20 TCPU     9392.73
 POSSIBLY CONDUCTING STATE - EFERMI(AU) -1.4193367E+00 (RES. CHARGE  1.39E-12;IT. 12)
 TTTTTTTTTTTTTTTTTTTTTTTTTTTTTT PDIG        TELAPSE     9415.26 TCPU     9392.78
 CHARGE NORMALIZATION FACTOR   1.00000000
 TOTAL ATOMIC CHARGES:
  14.6532839  14.6498868  15.8367882  15.8403314  15.5166897  15.5180846
  13.9930476  13.9918878
 TTTTTTTTTTTTTTTTTTTTTTTTTTTTTT MOQGAD      TELAPSE     9415.27 TCPU     9392.80
 TTTTTTTTTTTTTTTTTTTTTTTTTTTTTT SHELLXN     TELAPSE    10079.72 TCPU    10055.67
 TTTTTTTTTTTTTTTTTTTTTTTTTTTTTT MONMO3      TELAPSE    10196.40 TCPU    10172.07
 NUMERICALLY INTEGRATED DENSITY    119.9989677477
 TTTTTTTTTTTTTTTTTTTTTTTTTTTTTT NUMDFT      TELAPSE    10198.99 TCPU    10174.65
 CYC  12 ETOT(AU) -2.950411413786E+03 DETOT -8.23E+00 tst  3.79E-02 PX  3.67E+00
 ANDERSON MIX: BETA=   1.496546436591E-01
 TTTTTTTTTTTTTTTTTTTTTTTTTTTTTT FDIK        TELAPSE    10199.21 TCPU    10174.87
 POSSIBLY CONDUCTING STATE - EFERMI(AU) -1.5081137E+00 (RES. CHARGE  1.74E-10;IT.  8)
 TTTTTTTTTTTTTTTTTTTTTTTTTTTTTT PDIG        TELAPSE    10199.26 TCPU    10174.93
 CHARGE NORMALIZATION FACTOR   1.00000000
 TOTAL ATOMIC CHARGES:
  14.7097942  14.7072259  15.6341632  15.6368126  15.5221005  15.5213514
  14.1348515  14.1337007
 TTTTTTTTTTTTTTTTTTTTTTTTTTTTTT MOQGAD      TELAPSE    10199.27 TCPU    10174.94
 TTTTTTTTTTTTTTTTTTTTTTTTTTTTTT SHELLXN     TELAPSE    10863.72 TCPU    10837.80
 TTTTTTTTTTTTTTTTTTTTTTTTTTTTTT MONMO3      TELAPSE    10980.44 TCPU    10954.24
 NUMERICALLY INTEGRATED DENSITY    119.9989620196
 TTTTTTTTTTTTTTTTTTTTTTTTTTTTTT NUMDFT      TELAPSE    10983.04 TCPU    10956.84
 CYC  13 ETOT(AU) -2.952893861056E+03 DETOT -2.48E+00 tst  8.78E-02 PX  9.96E+00
 ANDERSON MIX: BETA=  -2.322236407693E-01
 TTTTTTTTTTTTTTTTTTTTTTTTTTTTTT FDIK        TELAPSE    10983.27 TCPU    10957.07
 POSSIBLY CONDUCTING STATE - EFERMI(AU) -1.6250072E+00 (RES. CHARGE  2.10E-11;IT.  8)
 TTTTTTTTTTTTTTTTTTTTTTTTTTTTTT PDIG        TELAPSE    10983.32 TCPU    10957.12
 CHARGE NORMALIZATION FACTOR   1.00000000
 TOTAL ATOMIC CHARGES:
  14.3570367  14.3533799  15.4560086  15.4595236  15.8290079  15.8293486
  14.3573799  14.3583149
 TTTTTTTTTTTTTTTTTTTTTTTTTTTTTT MOQGAD      TELAPSE    10983.33 TCPU    10957.13
 TTTTTTTTTTTTTTTTTTTTTTTTTTTTTT SHELLXN     TELAPSE    11647.91 TCPU    11620.13
 TTTTTTTTTTTTTTTTTTTTTTTTTTTTTT MONMO3      TELAPSE    11765.22 TCPU    11737.15
 NUMERICALLY INTEGRATED DENSITY    119.9989568891
 TTTTTTTTTTTTTTTTTTTTTTTTTTTTTT NUMDFT      TELAPSE    11767.82 TCPU    11739.75
 CYC  14 ETOT(AU) -2.953671126280E+03 DETOT -7.77E-01 tst  5.13E-02 PX  7.43E+00
 ANDERSON MIX: BETA=   8.015418841890E-01
 TTTTTTTTTTTTTTTTTTTTTTTTTTTTTT FDIK        TELAPSE    11768.08 TCPU    11740.00
 POSSIBLY CONDUCTING STATE - EFERMI(AU) -1.6271147E+00 (RES. CHARGE  2.84E-14;IT. 10)
 TTTTTTTTTTTTTTTTTTTTTTTTTTTTTT PDIG        TELAPSE    11768.13 TCPU    11740.06
 CHARGE NORMALIZATION FACTOR   1.00000000
 TOTAL ATOMIC CHARGES:
  14.6236909  14.6210927  15.5885592  15.5898993  15.5904032  15.5889180
  14.1991451  14.1982916
 TTTTTTTTTTTTTTTTTTTTTTTTTTTTTT MOQGAD      TELAPSE    11768.14 TCPU    11740.07
 TTTTTTTTTTTTTTTTTTTTTTTTTTTTTT SHELLXN     TELAPSE    12432.76 TCPU    12403.11
 TTTTTTTTTTTTTTTTTTTTTTTTTTTTTT MONMO3      TELAPSE    12549.82 TCPU    12519.89
 NUMERICALLY INTEGRATED DENSITY    119.9989566257
 TTTTTTTTTTTTTTTTTTTTTTTTTTTTTT NUMDFT      TELAPSE    12552.42 TCPU    12522.48
 CYC  15 ETOT(AU) -2.954588934787E+03 DETOT -9.18E-01 tst  2.78E-02 PX  5.24E-01
 ANDERSON MIX: BETA=  -5.181541095091E-02
 TTTTTTTTTTTTTTTTTTTTTTTTTTTTTT FDIK        TELAPSE    12552.64 TCPU    12522.70
 POSSIBLY CONDUCTING STATE - EFERMI(AU) -1.7167747E+00 (RES. CHARGE  1.57E-12;IT. 10)
 TTTTTTTTTTTTTTTTTTTTTTTTTTTTTT PDIG        TELAPSE    12552.69 TCPU    12522.75
 CHARGE NORMALIZATION FACTOR   1.00000000
 TOTAL ATOMIC CHARGES:
  14.5896381  14.5866595  15.6717589  15.6741227  15.5738251  15.5735097
  14.1656454  14.1648406
 TTTTTTTTTTTTTTTTTTTTTTTTTTTTTT MOQGAD      TELAPSE    12552.70 TCPU    12522.76
 TTTTTTTTTTTTTTTTTTTTTTTTTTTTTT SHELLXN     TELAPSE    13217.11 TCPU    13185.59
 TTTTTTTTTTTTTTTTTTTTTTTTTTTTTT MONMO3      TELAPSE    13333.78 TCPU    13301.97
 NUMERICALLY INTEGRATED DENSITY    119.9989525081
 TTTTTTTTTTTTTTTTTTTTTTTTTTTTTT NUMDFT      TELAPSE    13336.37 TCPU    13304.56
 CYC  16 ETOT(AU) -2.955413790494E+03 DETOT -8.25E-01 tst  2.66E-02 PX  3.94E+00
 ANDERSON MIX: BETA=  -1.027686984419E+00
 TTTTTTTTTTTTTTTTTTTTTTTTTTTTTT FDIK        TELAPSE    13336.58 TCPU    13304.78
 POSSIBLY CONDUCTING STATE - EFERMI(AU) -1.8471050E+00 (RES. CHARGE  7.72E-10;IT.  8)
 TTTTTTTTTTTTTTTTTTTTTTTTTTTTTT PDIG        TELAPSE    13336.63 TCPU    13304.83
 CHARGE NORMALIZATION FACTOR   1.00000000
 TOTAL ATOMIC CHARGES:
  14.4677822  14.4652725  15.6042048  15.6060647  15.6898981  15.6887129
  14.2389730  14.2390918
 TTTTTTTTTTTTTTTTTTTTTTTTTTTTTT MOQGAD      TELAPSE    13336.65 TCPU    13304.84
 TTTTTTTTTTTTTTTTTTTTTTTTTTTTTT SHELLXN     TELAPSE    14001.65 TCPU    13968.26
 TTTTTTTTTTTTTTTTTTTTTTTTTTTTTT MONMO3      TELAPSE    14117.77 TCPU    14084.10
 NUMERICALLY INTEGRATED DENSITY    119.9989474878
 TTTTTTTTTTTTTTTTTTTTTTTTTTTTTT NUMDFT      TELAPSE    14120.36 TCPU    14086.68
 CYC  17 ETOT(AU) -2.956180654976E+03 DETOT -7.67E-01 tst  1.17E-01 PX  5.35E+00
 ANDERSON MIX: BETA=   8.214844238824E-01
 TTTTTTTTTTTTTTTTTTTTTTTTTTTTTT FDIK        TELAPSE    14120.59 TCPU    14086.92
 POSSIBLY CONDUCTING STATE - EFERMI(AU) -1.8050680E+00 (RES. CHARGE  1.35E-13;IT. 10)
 TTTTTTTTTTTTTTTTTTTTTTTTTTTTTT PDIG        TELAPSE    14120.65 TCPU    14086.97
 CHARGE NORMALIZATION FACTOR   1.00000000
 TOTAL ATOMIC CHARGES:
  14.6273167  14.6250668  15.7073769  15.7102639  15.5461858  15.5456935
  14.1191841  14.1189122
 TTTTTTTTTTTTTTTTTTTTTTTTTTTTTT MOQGAD      TELAPSE    14120.66 TCPU    14086.98
 TTTTTTTTTTTTTTTTTTTTTTTTTTTTTT SHELLXN     TELAPSE    14785.54 TCPU    14750.28
 TTTTTTTTTTTTTTTTTTTTTTTTTTTTTT MONMO3      TELAPSE    14902.23 TCPU    14866.70
 NUMERICALLY INTEGRATED DENSITY    119.9989494588
 TTTTTTTTTTTTTTTTTTTTTTTTTTTTTT NUMDFT      TELAPSE    14904.83 TCPU    14869.29
 CYC  18 ETOT(AU) -2.956052766298E+03 DETOT  1.28E-01 tst  1.91E-02 PX  1.53E+00
 ANDERSON MIX: BETA=   3.425937698113E-01
 TTTTTTTTTTTTTTTTTTTTTTTTTTTTTT FDIK        TELAPSE    14905.04 TCPU    14869.50
 POSSIBLY CONDUCTING STATE - EFERMI(AU) -1.8717881E+00 (RES. CHARGE  3.99E-10;IT. 10)
 TTTTTTTTTTTTTTTTTTTTTTTTTTTTTT PDIG        TELAPSE    14905.09 TCPU    14869.55
 CHARGE NORMALIZATION FACTOR   1.00000000
 TOTAL ATOMIC CHARGES:
  14.6148690  14.6125665  15.6807049  15.6834546  15.5671013  15.5672214
  14.1366042  14.1374782
 TTTTTTTTTTTTTTTTTTTTTTTTTTTTTT MOQGAD      TELAPSE    14905.10 TCPU    14869.56
 TTTTTTTTTTTTTTTTTTTTTTTTTTTTTT SHELLXN     TELAPSE    15569.94 TCPU    15532.81
 TTTTTTTTTTTTTTTTTTTTTTTTTTTTTT MONMO3      TELAPSE    15686.71 TCPU    15649.31
 NUMERICALLY INTEGRATED DENSITY    119.9989468472
 TTTTTTTTTTTTTTTTTTTTTTTTTTTTTT NUMDFT      TELAPSE    15689.31 TCPU    15651.90
 CYC  19 ETOT(AU) -2.956486430890E+03 DETOT -4.34E-01 tst  7.69E-02 PX  2.47E+00
 ANDERSON MIX: BETA=  -1.444311638357E+00
 TTTTTTTTTTTTTTTTTTTTTTTTTTTTTT FDIK        TELAPSE    15689.53 TCPU    15652.12
 POSSIBLY CONDUCTING STATE - EFERMI(AU) -2.0097435E+00 (RES. CHARGE  2.09E-06;IT. 47)
 TTTTTTTTTTTTTTTTTTTTTTTTTTTTTT PDIG        TELAPSE    15689.58 TCPU    15652.17
 CHARGE NORMALIZATION FACTOR   1.00000003
 TOTAL ATOMIC CHARGES:
  14.6581240  14.6482749  15.6740697  15.6762820  15.5525043  15.5532239
  14.1177538  14.1197675
 TTTTTTTTTTTTTTTTTTTTTTTTTTTTTT MOQGAD      TELAPSE    15689.59 TCPU    15652.18
 TTTTTTTTTTTTTTTTTTTTTTTTTTTTTT SHELLXN     TELAPSE    16354.65 TCPU    16315.66
 TTTTTTTTTTTTTTTTTTTTTTTTTTTTTT MONMO3      TELAPSE    16470.84 TCPU    16431.57
 NUMERICALLY INTEGRATED DENSITY    119.9989439025
 TTTTTTTTTTTTTTTTTTTTTTTTTTTTTT NUMDFT      TELAPSE    16473.44 TCPU    16434.16
 CYC  20 ETOT(AU) -2.957083460371E+03 DETOT -5.97E-01 tst  3.25E-02 PX  4.64E+00
 ANDERSON MIX: BETA=  -6.370481048315E-03
 TTTTTTTTTTTTTTTTTTTTTTTTTTTTTT FDIK        TELAPSE    16473.69 TCPU    16434.41
 POSSIBLY CONDUCTING STATE - EFERMI(AU) -2.0363158E+00 (RES. CHARGE  5.68E-14;IT. 10)
 TTTTTTTTTTTTTTTTTTTTTTTTTTTTTT PDIG        TELAPSE    16473.74 TCPU    16434.46
 CHARGE NORMALIZATION FACTOR   1.00000000
 TOTAL ATOMIC CHARGES:
  14.4915005  14.4890867  15.5913523  15.5928243  15.6554305  15.6552797
  14.2619118  14.2626143
 TTTTTTTTTTTTTTTTTTTTTTTTTTTTTT MOQGAD      TELAPSE    16473.75 TCPU    16434.47
 TTTTTTTTTTTTTTTTTTTTTTTTTTTTTT SHELLXN     TELAPSE    17138.93 TCPU    17098.07
 TTTTTTTTTTTTTTTTTTTTTTTTTTTTTT MONMO3      TELAPSE    17254.99 TCPU    17213.85
 NUMERICALLY INTEGRATED DENSITY    119.9989427838
 TTTTTTTTTTTTTTTTTTTTTTTTTTTTTT NUMDFT      TELAPSE    17257.68 TCPU    17216.53
 CYC  21 ETOT(AU) -2.957010858142E+03 DETOT  7.26E-02 tst  3.79E-03 PX  1.34E+00
 ANDERSON MIX: BETA=   7.454695901849E-01
 TTTTTTTTTTTTTTTTTTTTTTTTTTTTTT FDIK        TELAPSE    17257.91 TCPU    17216.76
 POSSIBLY CONDUCTING STATE - EFERMI(AU) -2.0425807E+00 (RES. CHARGE  7.31E-10;IT. 12)
 TTTTTTTTTTTTTTTTTTTTTTTTTTTTTT PDIG        TELAPSE    17257.96 TCPU    17216.82
 CHARGE NORMALIZATION FACTOR   1.00000000
 TOTAL ATOMIC CHARGES:
  14.6190827  14.6169012  15.6589151  15.6603530  15.5700357  15.5711208
  14.1510997  14.1524919
 TTTTTTTTTTTTTTTTTTTTTTTTTTTTTT MOQGAD      TELAPSE    17257.97 TCPU    17216.83
 TTTTTTTTTTTTTTTTTTTTTTTTTTTTTT SHELLXN     TELAPSE    17922.89 TCPU    17880.16
 TTTTTTTTTTTTTTTTTTTTTTTTTTTTTT MONMO3      TELAPSE    18039.72 TCPU    17996.71
 NUMERICALLY INTEGRATED DENSITY    119.9989430992
 TTTTTTTTTTTTTTTTTTTTTTTTTTTTTT NUMDFT      TELAPSE    18042.34 TCPU    17999.33
 CYC  22 ETOT(AU) -2.957236233679E+03 DETOT -2.25E-01 tst  3.10E-03 PX  6.96E-01
 ANDERSON MIX: BETA=   4.323398330829E-02
 TTTTTTTTTTTTTTTTTTTTTTTTTTTTTT FDIK        TELAPSE    18042.56 TCPU    17999.54
 POSSIBLY CONDUCTING STATE - EFERMI(AU) -2.0653276E+00 (RES. CHARGE  1.29E-12;IT. 12)
 TTTTTTTTTTTTTTTTTTTTTTTTTTTTTT PDIG        TELAPSE    18042.61 TCPU    17999.59
 CHARGE NORMALIZATION FACTOR   1.00000000
 TOTAL ATOMIC CHARGES:
  14.6189834  14.6167260  15.6589836  15.6602514  15.5727430  15.5740763
  14.1482388  14.1499976
 TTTTTTTTTTTTTTTTTTTTTTTTTTTTTT MOQGAD      TELAPSE    18042.62 TCPU    17999.61
 TTTTTTTTTTTTTTTTTTTTTTTTTTTTTT SHELLXN     TELAPSE    18707.23 TCPU    18662.64
 TTTTTTTTTTTTTTTTTTTTTTTTTTTTTT MONMO3      TELAPSE    18824.04 TCPU    18779.16
 NUMERICALLY INTEGRATED DENSITY    119.9989425228
 TTTTTTTTTTTTTTTTTTTTTTTTTTTTTT NUMDFT      TELAPSE    18826.63 TCPU    18781.75
 CYC  23 ETOT(AU) -2.957319692964E+03 DETOT -8.35E-02 tst  3.24E-03 PX  1.48E+00
 ANDERSON MIX: BETA=  -4.907059460150E+00
 TTTTTTTTTTTTTTTTTTTTTTTTTTTTTT FDIK        TELAPSE    18826.85 TCPU    18781.97
 POSSIBLY CONDUCTING STATE - EFERMI(AU) -2.1663209E+00 (RES. CHARGE  3.06E-13;IT. 12)
 TTTTTTTTTTTTTTTTTTTTTTTTTTTTTT PDIG        TELAPSE    18826.90 TCPU    18782.02
 CHARGE NORMALIZATION FACTOR   1.00000000
 TOTAL ATOMIC CHARGES:
  14.6352370  14.6439365  15.6318861  15.6316380  15.5878724  15.5899518
  14.1379886  14.1414897
 TTTTTTTTTTTTTTTTTTTTTTTTTTTTTT MOQGAD      TELAPSE    18826.91 TCPU    18782.03
 TTTTTTTTTTTTTTTTTTTTTTTTTTTTTT SHELLXN     TELAPSE    19491.76 TCPU    19445.30
 TTTTTTTTTTTTTTTTTTTTTTTTTTTTTT MONMO3      TELAPSE    19608.23 TCPU    19561.49
 NUMERICALLY INTEGRATED DENSITY    119.9989401048
 TTTTTTTTTTTTTTTTTTTTTTTTTTTTTT NUMDFT      TELAPSE    19610.82 TCPU    19564.07
 CYC  24 ETOT(AU) -2.957669732885E+03 DETOT -3.50E-01 tst  9.56E-02 PX  9.42E+00
 ANDERSON MIX: BETA=   5.551366587478E-02
 TTTTTTTTTTTTTTTTTTTTTTTTTTTTTT FDIK        TELAPSE    19611.07 TCPU    19564.32
 POSSIBLY CONDUCTING STATE - EFERMI(AU) -2.1604141E+00 (RES. CHARGE  1.29E-06;IT. 50)
 TTTTTTTTTTTTTTTTTTTTTTTTTTTTTT PDIG        TELAPSE    19611.12 TCPU    19564.38
 CHARGE NORMALIZATION FACTOR   1.00000002
 TOTAL ATOMIC CHARGES:
  14.6369947  14.6423884  15.6353601  15.6354369  15.5827533  15.5843092
  14.1404722  14.1422852
 TTTTTTTTTTTTTTTTTTTTTTTTTTTTTT MOQGAD      TELAPSE    19611.13 TCPU    19564.39
 TTTTTTTTTTTTTTTTTTTTTTTTTTTTTT SHELLXN     TELAPSE    20275.74 TCPU    20227.41
 TTTTTTTTTTTTTTTTTTTTTTTTTTTTTT MONMO3      TELAPSE    20392.55 TCPU    20343.94
 NUMERICALLY INTEGRATED DENSITY    119.9989398737
 TTTTTTTTTTTTTTTTTTTTTTTTTTTTTT NUMDFT      TELAPSE    20395.16 TCPU    20346.54
 CYC  25 ETOT(AU) -2.957715552831E+03 DETOT -4.58E-02 tst  4.06E-04 PX  2.83E+00
 ANDERSON MIX: BETA=   5.878327036398E-01
 TTTTTTTTTTTTTTTTTTTTTTTTTTTTTT FDIK        TELAPSE    20395.38 TCPU    20346.77
 POSSIBLY CONDUCTING STATE - EFERMI(AU) -2.1629729E+00 (RES. CHARGE  8.44E-06;IT. 31)
 TTTTTTTTTTTTTTTTTTTTTTTTTTTTTT PDIG        TELAPSE    20395.43 TCPU    20346.82
 CHARGE NORMALIZATION FACTOR   1.00000014
 TOTAL ATOMIC CHARGES:
  14.6408930  14.6433493  15.6340883  15.6352235  15.5806634  15.5826930
  14.1404443  14.1426452
 TTTTTTTTTTTTTTTTTTTTTTTTTTTTTT MOQGAD      TELAPSE    20395.44 TCPU    20346.83
 TTTTTTTTTTTTTTTTTTTTTTTTTTTTTT SHELLXN     TELAPSE    21059.79 TCPU    21009.59
 TTTTTTTTTTTTTTTTTTTTTTTTTTTTTT MONMO3      TELAPSE    21176.78 TCPU    21126.30
 NUMERICALLY INTEGRATED DENSITY    119.9989396965
 TTTTTTTTTTTTTTTTTTTTTTTTTTTTTT NUMDFT      TELAPSE    21179.38 TCPU    21128.90
 CYC  26 ETOT(AU) -2.957751787477E+03 DETOT -3.62E-02 tst  4.94E-04 PX  1.89E+00
 ANDERSON MIX: BETA=   2.951285143475E+00
 TTTTTTTTTTTTTTTTTTTTTTTTTTTTTT FDIK        TELAPSE    21179.60 TCPU    21129.11
 POSSIBLY CONDUCTING STATE - EFERMI(AU) -2.1568570E+00 (RES. CHARGE  2.76E-08;IT. 31)
 TTTTTTTTTTTTTTTTTTTTTTTTTTTTTT PDIG        TELAPSE    21179.65 TCPU    21129.16
 CHARGE NORMALIZATION FACTOR   1.00000000
 TOTAL ATOMIC CHARGES:
  14.6434867  14.6473000  15.6367400  15.6374666  15.5775965  15.5796839
  14.1379727  14.1397537
 TTTTTTTTTTTTTTTTTTTTTTTTTTTTTT MOQGAD      TELAPSE    21179.66 TCPU    21129.17
 TTTTTTTTTTTTTTTTTTTTTTTTTTTTTT SHELLXN     TELAPSE    21844.34 TCPU    21792.28
 TTTTTTTTTTTTTTTTTTTTTTTTTTTTTT MONMO3      TELAPSE    21960.76 TCPU    21908.42
 NUMERICALLY INTEGRATED DENSITY    119.9989399083
 TTTTTTTTTTTTTTTTTTTTTTTTTTTTTT NUMDFT      TELAPSE    21963.36 TCPU    21911.01
 CYC  27 ETOT(AU) -2.957709320892E+03 DETOT  4.25E-02 tst  9.29E-04 PX  2.36E+00
 ANDERSON MIX: BETA=   1.500192609663E+00
 TTTTTTTTTTTTTTTTTTTTTTTTTTTTTT FDIK        TELAPSE    21963.58 TCPU    21911.23
 POSSIBLY CONDUCTING STATE - EFERMI(AU) -2.1647271E+00 (RES. CHARGE  2.63E-13;IT. 14)
 TTTTTTTTTTTTTTTTTTTTTTTTTTTTTT PDIG        TELAPSE    21963.63 TCPU    21911.28
 CHARGE NORMALIZATION FACTOR   1.00000000
 TOTAL ATOMIC CHARGES:
  14.6423577  14.6414439  15.6326564  15.6354320  15.5787319  15.5807680
  14.1428269  14.1457833
 TTTTTTTTTTTTTTTTTTTTTTTTTTTTTT MOQGAD      TELAPSE    21963.64 TCPU    21911.29
 TTTTTTTTTTTTTTTTTTTTTTTTTTTTTT SHELLXN     TELAPSE    22628.46 TCPU    22574.52
 TTTTTTTTTTTTTTTTTTTTTTTTTTTTTT MONMO3      TELAPSE    22744.96 TCPU    22690.75
 NUMERICALLY INTEGRATED DENSITY    119.9989392689
 TTTTTTTTTTTTTTTTTTTTTTTTTTTTTT NUMDFT      TELAPSE    22747.56 TCPU    22693.34
 CYC  28 ETOT(AU) -2.957835075927E+03 DETOT -1.26E-01 tst  6.10E-03 PX  7.63E+00
 ANDERSON MIX: BETA=  -1.700934828521E-01
 TTTTTTTTTTTTTTTTTTTTTTTTTTTTTT FDIK        TELAPSE    22747.77 TCPU    22693.56
 POSSIBLY CONDUCTING STATE - EFERMI(AU) -2.1645161E+00 (RES. CHARGE  3.48E-13;IT.  6)
 TTTTTTTTTTTTTTTTTTTTTTTTTTTTTT PDIG        TELAPSE    22747.82 TCPU    22693.61
 CHARGE NORMALIZATION FACTOR   1.00000000
 TOTAL ATOMIC CHARGES:
  14.6408755  14.6415650  15.6306797  15.6329554  15.5788111  15.5807815
  14.1458727  14.1484591
 TTTTTTTTTTTTTTTTTTTTTTTTTTTTTT MOQGAD      TELAPSE    22747.84 TCPU    22693.62
 TTTTTTTTTTTTTTTTTTTTTTTTTTTTTT SHELLXN     TELAPSE    23412.41 TCPU    23356.61
 TTTTTTTTTTTTTTTTTTTTTTTTTTTTTT MONMO3      TELAPSE    23529.18 TCPU    23473.10
 NUMERICALLY INTEGRATED DENSITY    119.9989387393
 TTTTTTTTTTTTTTTTTTTTTTTTTTTTTT NUMDFT      TELAPSE    23531.77 TCPU    23475.69
 CYC  29 ETOT(AU) -2.957929455075E+03 DETOT -9.44E-02 tst  1.97E-03 PX  6.21E+00
 ANDERSON MIX: BETA=   3.086176300471E-01
 TTTTTTTTTTTTTTTTTTTTTTTTTTTTTT FDIK        TELAPSE    23532.00 TCPU    23475.92
 POSSIBLY CONDUCTING STATE - EFERMI(AU) -2.1635487E+00 (RES. CHARGE  3.13E-12;IT.  6)
 TTTTTTTTTTTTTTTTTTTTTTTTTTTTTT PDIG        TELAPSE    23532.05 TCPU    23475.97
 CHARGE NORMALIZATION FACTOR   1.00000000
 TOTAL ATOMIC CHARGES:
  14.6442355  14.6443641  15.6309152  15.6331417  15.5768344  15.5788759
  14.1445042  14.1471291
 TTTTTTTTTTTTTTTTTTTTTTTTTTTTTT MOQGAD      TELAPSE    23532.06 TCPU    23475.98
 TTTTTTTTTTTTTTTTTTTTTTTTTTTTTT SHELLXN     TELAPSE    24196.40 TCPU    24138.73
 TTTTTTTTTTTTTTTTTTTTTTTTTTTTTT MONMO3      TELAPSE    24313.62 TCPU    24255.67
 NUMERICALLY INTEGRATED DENSITY    119.9989385376
 TTTTTTTTTTTTTTTTTTTTTTTTTTTTTT NUMDFT      TELAPSE    24316.22 TCPU    24258.27
 CYC  30 ETOT(AU) -2.957979204392E+03 DETOT -4.97E-02 tst  4.85E-04 PX  3.34E+00
 ANDERSON MIX: BETA=   5.946565135368E-01
 TTTTTTTTTTTTTTTTTTTTTTTTTTTTTT FDIK        TELAPSE    24316.43 TCPU    24258.48
 POSSIBLY CONDUCTING STATE - EFERMI(AU) -2.1631536E+00 (RES. CHARGE  3.15E-12;IT.  6)
 TTTTTTTTTTTTTTTTTTTTTTTTTTTTTT PDIG        TELAPSE    24316.48 TCPU    24258.53
 CHARGE NORMALIZATION FACTOR   1.00000000
 TOTAL ATOMIC CHARGES:
  14.6444587  14.6453785  15.6296951  15.6320014  15.5762099  15.5784556
  14.1456331  14.1481678
 TTTTTTTTTTTTTTTTTTTTTTTTTTTTTT MOQGAD      TELAPSE    24316.49 TCPU    24258.54
 TTTTTTTTTTTTTTTTTTTTTTTTTTTTTT SHELLXN     TELAPSE    24981.12 TCPU    24921.58
 TTTTTTTTTTTTTTTTTTTTTTTTTTTTTT MONMO3      TELAPSE    25097.39 TCPU    25037.58
 NUMERICALLY INTEGRATED DENSITY    119.9989382946
 TTTTTTTTTTTTTTTTTTTTTTTTTTTTTT NUMDFT      TELAPSE    25099.99 TCPU    25040.17
 CYC  31 ETOT(AU) -2.958035338859E+03 DETOT -5.61E-02 tst  6.22E-04 PX  3.58E+00
 ANDERSON MIX: BETA=  -2.512805387211E+00
 TTTTTTTTTTTTTTTTTTTTTTTTTTTTTT FDIK        TELAPSE    25100.20 TCPU    25040.38
 POSSIBLY CONDUCTING STATE - EFERMI(AU) -2.1617151E+00 (RES. CHARGE  2.33E-10;IT.  6)
 TTTTTTTTTTTTTTTTTTTTTTTTTTTTTT PDIG        TELAPSE    25100.25 TCPU    25040.44
 CHARGE NORMALIZATION FACTOR   1.00000000
 TOTAL ATOMIC CHARGES:
  14.6482945  14.6498735  15.6255886  15.6290203  15.5716090  15.5737400
  14.1496432  14.1522309
 TTTTTTTTTTTTTTTTTTTTTTTTTTTTTT MOQGAD      TELAPSE    25100.26 TCPU    25040.45
 TTTTTTTTTTTTTTTTTTTTTTTTTTTTTT SHELLXN     TELAPSE    25764.89 TCPU    25703.49
 TTTTTTTTTTTTTTTTTTTTTTTTTTTTTT MONMO3      TELAPSE    25881.29 TCPU    25819.62
 NUMERICALLY INTEGRATED DENSITY    119.9989372360
 TTTTTTTTTTTTTTTTTTTTTTTTTTTTTT NUMDFT      TELAPSE    25883.89 TCPU    25822.21
 CYC  32 ETOT(AU) -2.958290784043E+03 DETOT -2.55E-01 tst  1.40E-02 PX  1.54E+01
 ANDERSON MIX: BETA=  -3.624413267684E-01
 TTTTTTTTTTTTTTTTTTTTTTTTTTTTTT FDIK        TELAPSE    25884.11 TCPU    25822.43
 POSSIBLY CONDUCTING STATE - EFERMI(AU) -2.1608466E+00 (RES. CHARGE  1.90E-10;IT.  6)
 TTTTTTTTTTTTTTTTTTTTTTTTTTTTTT PDIG        TELAPSE    25884.17 TCPU    25822.48
 CHARGE NORMALIZATION FACTOR   1.00000000
 TOTAL ATOMIC CHARGES:
  14.6482773  14.6498660  15.6204704  15.6260876  15.5707209  15.5722615
  14.1558645  14.1564519
 TTTTTTTTTTTTTTTTTTTTTTTTTTTTTT MOQGAD      TELAPSE    25884.18 TCPU    25822.49
 TTTTTTTTTTTTTTTTTTTTTTTTTTTTTT SHELLXN     TELAPSE    26548.80 TCPU    26485.53
 TTTTTTTTTTTTTTTTTTTTTTTTTTTTTT MONMO3      TELAPSE    26665.47 TCPU    26601.93
 NUMERICALLY INTEGRATED DENSITY    119.9989363188
 TTTTTTTTTTTTTTTTTTTTTTTTTTTTTT NUMDFT      TELAPSE    26668.07 TCPU    26604.52
 CYC  33 ETOT(AU) -2.958542299912E+03 DETOT -2.52E-01 tst  1.34E-02 PX  1.30E+01
 ANDERSON MIX: BETA=   6.152588492427E-01
 TTTTTTTTTTTTTTTTTTTTTTTTTTTTTT FDIK        TELAPSE    26668.33 TCPU    26604.78
 POSSIBLY CONDUCTING STATE - EFERMI(AU) -2.1611736E+00 (RES. CHARGE  3.77E-13;IT. 10)
 TTTTTTTTTTTTTTTTTTTTTTTTTTTTTT PDIG        TELAPSE    26668.38 TCPU    26604.83
 CHARGE NORMALIZATION FACTOR   1.00000000
 TOTAL ATOMIC CHARGES:
  14.6520194  14.6523984  15.6221904  15.6258987  15.5709818  15.5707499
  14.1528050  14.1529565
 TTTTTTTTTTTTTTTTTTTTTTTTTTTTTT MOQGAD      TELAPSE    26668.39 TCPU    26604.84
 TTTTTTTTTTTTTTTTTTTTTTTTTTTTTT SHELLXN     TELAPSE    27332.85 TCPU    27267.71
 TTTTTTTTTTTTTTTTTTTTTTTTTTTTTT MONMO3      TELAPSE    27449.35 TCPU    27383.94
 NUMERICALLY INTEGRATED DENSITY    119.9989364533
 TTTTTTTTTTTTTTTTTTTTTTTTTTTTTT NUMDFT      TELAPSE    27451.94 TCPU    27386.52
 CYC  34 ETOT(AU) -2.958537571065E+03 DETOT  4.73E-03 tst  1.47E-04 PX  2.36E-01
 ANDERSON MIX: BETA=   3.195157965528E-01
 TTTTTTTTTTTTTTTTTTTTTTTTTTTTTT FDIK        TELAPSE    27452.14 TCPU    27386.73
 POSSIBLY CONDUCTING STATE - EFERMI(AU) -2.1609897E+00 (RES. CHARGE  5.68E-14;IT.  6)
 TTTTTTTTTTTTTTTTTTTTTTTTTTTTTT PDIG        TELAPSE    27452.20 TCPU    27386.78
 CHARGE NORMALIZATION FACTOR   1.00000000
 TOTAL ATOMIC CHARGES:
  14.6539556  14.6551645  15.6200428  15.6248705  15.5691910  15.5683419
  14.1545533  14.1538804
 TTTTTTTTTTTTTTTTTTTTTTTTTTTTTT MOQGAD      TELAPSE    27452.21 TCPU    27386.79
 TTTTTTTTTTTTTTTTTTTTTTTTTTTTTT SHELLXN     TELAPSE    28116.54 TCPU    28049.54
 TTTTTTTTTTTTTTTTTTTTTTTTTTTTTT MONMO3      TELAPSE    28233.32 TCPU    28166.04
 NUMERICALLY INTEGRATED DENSITY    119.9989358982
 TTTTTTTTTTTTTTTTTTTTTTTTTTTTTT NUMDFT      TELAPSE    28235.91 TCPU    28168.63
 CYC  35 ETOT(AU) -2.958693057096E+03 DETOT -1.55E-01 tst  5.14E-03 PX  7.79E+00
 ANDERSON MIX: BETA=   2.753752195914E+00
 TTTTTTTTTTTTTTTTTTTTTTTTTTTTTT FDIK        TELAPSE    28236.11 TCPU    28168.83
 POSSIBLY CONDUCTING STATE - EFERMI(AU) -2.1612450E+00 (RES. CHARGE  2.79E-11;IT. 10)
 TTTTTTTTTTTTTTTTTTTTTTTTTTTTTT PDIG        TELAPSE    28236.16 TCPU    28168.88
 CHARGE NORMALIZATION FACTOR   1.00000000
 TOTAL ATOMIC CHARGES:
  14.6513056  14.6523913  15.6230024  15.6272783  15.5717181  15.5719727
  14.1506337  14.1516979
 TTTTTTTTTTTTTTTTTTTTTTTTTTTTTT MOQGAD      TELAPSE    28236.18 TCPU    28168.89
 TTTTTTTTTTTTTTTTTTTTTTTTTTTTTT SHELLXN     TELAPSE    28900.64 TCPU    28831.77
 TTTTTTTTTTTTTTTTTTTTTTTTTTTTTT MONMO3      TELAPSE    29017.39 TCPU    28948.25
 NUMERICALLY INTEGRATED DENSITY    119.9989369113
 TTTTTTTTTTTTTTTTTTTTTTTTTTTTTT NUMDFT      TELAPSE    29019.99 TCPU    28950.84
 CYC  36 ETOT(AU) -2.958402725281E+03 DETOT  2.90E-01 tst  2.03E-02 PX  1.51E+01
 ANDERSON MIX: BETA=   4.568267078547E+00
 TTTTTTTTTTTTTTTTTTTTTTTTTTTTTT FDIK        TELAPSE    29020.20 TCPU    28951.04
 POSSIBLY CONDUCTING STATE - EFERMI(AU) -2.1578265E+00 (RES. CHARGE  9.75E-11;IT.  6)
 TTTTTTTTTTTTTTTTTTTTTTTTTTTTTT PDIG        TELAPSE    29020.25 TCPU    28951.10
 CHARGE NORMALIZATION FACTOR   1.00000000
 TOTAL ATOMIC CHARGES:
  14.6639405  14.6722387  15.6074639  15.6154594  15.5640309  15.5549844
  14.1597855  14.1620967
 TTTTTTTTTTTTTTTTTTTTTTTTTTTTTT MOQGAD      TELAPSE    29020.26 TCPU    28951.11
 TTTTTTTTTTTTTTTTTTTTTTTTTTTTTT SHELLXN     TELAPSE    29684.71 TCPU    29613.98
 TTTTTTTTTTTTTTTTTTTTTTTTTTTTTT MONMO3      TELAPSE    29801.50 TCPU    29730.49
 NUMERICALLY INTEGRATED DENSITY    119.9989309781
 TTTTTTTTTTTTTTTTTTTTTTTTTTTTTT NUMDFT      TELAPSE    29804.09 TCPU    29733.07
 CYC  37 ETOT(AU) -2.959598497650E+03 DETOT -1.20E+00 tst  4.52E-01 PX  6.28E+01
 ANDERSON MIX: BETA=   1.842441463594E+00
 TTTTTTTTTTTTTTTTTTTTTTTTTTTTTT FDIK        TELAPSE    29804.30 TCPU    29733.28
 POSSIBLY CONDUCTING STATE - EFERMI(AU) -2.1619233E+00 (RES. CHARGE  1.32E-12;IT. 12)
 TTTTTTTTTTTTTTTTTTTTTTTTTTTTTT PDIG        TELAPSE    29804.35 TCPU    29733.33
 CHARGE NORMALIZATION FACTOR   1.00000000
 TOTAL ATOMIC CHARGES:
  14.6418476  14.6544145  15.6226274  15.6343599  15.5708538  15.5595793
  14.1436497  14.1726677
 TTTTTTTTTTTTTTTTTTTTTTTTTTTTTT MOQGAD      TELAPSE    29804.36 TCPU    29733.34
 TTTTTTTTTTTTTTTTTTTTTTTTTTTTTT SHELLXN     TELAPSE    30469.13 TCPU    30396.53
 TTTTTTTTTTTTTTTTTTTTTTTTTTTTTT MONMO3      TELAPSE    30585.47 TCPU    30512.59
 NUMERICALLY INTEGRATED DENSITY    119.9989386575
 TTTTTTTTTTTTTTTTTTTTTTTTTTTTTT NUMDFT      TELAPSE    30588.06 TCPU    30515.18
 CYC  38 ETOT(AU) -2.957602964820E+03 DETOT  2.00E+00 tst  9.27E+00 PX  1.33E+02
 ANDERSON MIX: BETA=  -9.384717185834E-01
 TTTTTTTTTTTTTTTTTTTTTTTTTTTTTT FDIK        TELAPSE    30588.26 TCPU    30515.38
 POSSIBLY CONDUCTING STATE - EFERMI(AU) -2.1715908E+00 (RES. CHARGE  2.63E-12;IT. 14)
 TTTTTTTTTTTTTTTTTTTTTTTTTTTTTT PDIG        TELAPSE    30588.32 TCPU    30515.43
 CHARGE NORMALIZATION FACTOR   1.00000000
 TOTAL ATOMIC CHARGES:
  14.6231312  14.6288412  15.6173017  15.6241571  15.5758276  15.5697685
  14.1804654  14.1805072
 TTTTTTTTTTTTTTTTTTTTTTTTTTTTTT MOQGAD      TELAPSE    30588.33 TCPU    30515.44
 TTTTTTTTTTTTTTTTTTTTTTTTTTTTTT SHELLXN     TELAPSE    31252.77 TCPU    31178.30
 TTTTTTTTTTTTTTTTTTTTTTTTTTTTTT MONMO3      TELAPSE    31369.45 TCPU    31294.70
 NUMERICALLY INTEGRATED DENSITY    119.9989327275
 TTTTTTTTTTTTTTTTTTTTTTTTTTTTTT NUMDFT      TELAPSE    31372.04 TCPU    31297.29
 CYC  39 ETOT(AU) -2.958238543677E+03 DETOT -6.36E-01 tst  1.64E+01 PX  1.08E+02
 ANDERSON MIX: BETA=   8.403606107150E-01
 TTTTTTTTTTTTTTTTTTTTTTTTTTTTTT FDIK        TELAPSE    31372.25 TCPU    31297.50
 POSSIBLY CONDUCTING STATE - EFERMI(AU) -2.1616296E+00 (RES. CHARGE  8.17E-11;IT.  8)
 TTTTTTTTTTTTTTTTTTTTTTTTTTTTTT PDIG        TELAPSE    31372.30 TCPU    31297.55
 CHARGE NORMALIZATION FACTOR   1.00000000
 TOTAL ATOMIC CHARGES:
  14.6472419  14.6520818  15.6254058  15.6326024  15.5609093  15.5542143
  14.1625700  14.1649745
 TTTTTTTTTTTTTTTTTTTTTTTTTTTTTT MOQGAD      TELAPSE    31372.31 TCPU    31297.56
 TTTTTTTTTTTTTTTTTTTTTTTTTTTTTT SHELLXN     TELAPSE    32036.73 TCPU    31960.39
 TTTTTTTTTTTTTTTTTTTTTTTTTTTTTT MONMO3      TELAPSE    32153.46 TCPU    32076.85
 NUMERICALLY INTEGRATED DENSITY    119.9989380792
 TTTTTTTTTTTTTTTTTTTTTTTTTTTTTT NUMDFT      TELAPSE    32156.06 TCPU    32079.44
 CYC  40 ETOT(AU) -2.957668397469E+03 DETOT  5.70E-01 tst  2.86E-01 PX  7.76E+01
 ANDERSON MIX: BETA=   2.277859654468E-01
 TTTTTTTTTTTTTTTTTTTTTTTTTTTTTT FDIK        TELAPSE    32156.28 TCPU    32079.66
 POSSIBLY CONDUCTING STATE - EFERMI(AU) -2.1654488E+00 (RES. CHARGE  3.54E-10;IT. 12)
 TTTTTTTTTTTTTTTTTTTTTTTTTTTTTT PDIG        TELAPSE    32156.33 TCPU    32079.71
 CHARGE NORMALIZATION FACTOR   1.00000000
 TOTAL ATOMIC CHARGES:
  14.6379473  14.6297381  15.6237908  15.6270540  15.5774668  15.5723081
  14.1659926  14.1657022
 TTTTTTTTTTTTTTTTTTTTTTTTTTTTTT MOQGAD      TELAPSE    32156.34 TCPU    32079.72
 TTTTTTTTTTTTTTTTTTTTTTTTTTTTTT SHELLXN     TELAPSE    32820.91 TCPU    32742.70
 TTTTTTTTTTTTTTTTTTTTTTTTTTTTTT MONMO3      TELAPSE    32937.83 TCPU    32859.35
 NUMERICALLY INTEGRATED DENSITY    119.9989368368
 TTTTTTTTTTTTTTTTTTTTTTTTTTTTTT NUMDFT      TELAPSE    32940.42 TCPU    32861.94
 CYC  41 ETOT(AU) -2.958091633274E+03 DETOT -4.23E-01 tst  5.43E-02 PX  2.90E+01
 ANDERSON MIX: BETA=   5.840719069887E-01
 TTTTTTTTTTTTTTTTTTTTTTTTTTTTTT FDIK        TELAPSE    32940.65 TCPU    32862.16
 POSSIBLY CONDUCTING STATE - EFERMI(AU) -2.1644145E+00 (RES. CHARGE  2.37E-12;IT.  8)
 TTTTTTTTTTTTTTTTTTTTTTTTTTTTTT PDIG        TELAPSE    32940.70 TCPU    32862.21
 CHARGE NORMALIZATION FACTOR   1.00000000
 TOTAL ATOMIC CHARGES:
  14.6395445  14.6346079  15.6214407  15.6248447  15.5751500  15.5741811
  14.1661950  14.1640361
 TTTTTTTTTTTTTTTTTTTTTTTTTTTTTT MOQGAD      TELAPSE    32940.71 TCPU    32862.22
 TTTTTTTTTTTTTTTTTTTTTTTTTTTTTT SHELLXN     TELAPSE    33605.25 TCPU    33525.18
 TTTTTTTTTTTTTTTTTTTTTTTTTTTTTT MONMO3      TELAPSE    33721.91 TCPU    33641.56
 NUMERICALLY INTEGRATED DENSITY    119.9989372553
 TTTTTTTTTTTTTTTTTTTTTTTTTTTTTT NUMDFT      TELAPSE    33724.49 TCPU    33644.14
 CYC  42 ETOT(AU) -2.957990152842E+03 DETOT  1.01E-01 tst  7.53E-03 PX  1.18E+01
 ANDERSON MIX: BETA=  -1.594119925385E+00
 TTTTTTTTTTTTTTTTTTTTTTTTTTTTTT FDIK        TELAPSE    33724.70 TCPU    33644.35
 POSSIBLY CONDUCTING STATE - EFERMI(AU) -2.1614087E+00 (RES. CHARGE  3.55E-14;IT. 10)
 TTTTTTTTTTTTTTTTTTTTTTTTTTTTTT PDIG        TELAPSE    33724.76 TCPU    33644.40
 CHARGE NORMALIZATION FACTOR   1.00000000
 TOTAL ATOMIC CHARGES:
  14.6625346  14.6588088  15.6336556  15.6371820  15.5595866  15.5623281
  14.1426915  14.1432127
 TTTTTTTTTTTTTTTTTTTTTTTTTTTTTT MOQGAD      TELAPSE    33724.77 TCPU    33644.41
 TTTTTTTTTTTTTTTTTTTTTTTTTTTTTT SHELLXN     TELAPSE    34389.29 TCPU    34307.35
 TTTTTTTTTTTTTTTTTTTTTTTTTTTTTT MONMO3      TELAPSE    34505.93 TCPU    34423.72
 NUMERICALLY INTEGRATED DENSITY    119.9989376051
 TTTTTTTTTTTTTTTTTTTTTTTTTTTTTT NUMDFT      TELAPSE    34508.52 TCPU    34426.30
 CYC  43 ETOT(AU) -2.957907248706E+03 DETOT  8.29E-02 tst  1.03E-02 PX  1.75E+01
 ANDERSON MIX: BETA=   7.664424677127E-01
 TTTTTTTTTTTTTTTTTTTTTTTTTTTTTT FDIK        TELAPSE    34508.72 TCPU    34426.50
 POSSIBLY CONDUCTING STATE - EFERMI(AU) -2.1632161E+00 (RES. CHARGE  7.92E-11;IT. 10)
 TTTTTTTTTTTTTTTTTTTTTTTTTTTTTT PDIG        TELAPSE    34508.77 TCPU    34426.55
 CHARGE NORMALIZATION FACTOR   1.00000000
 TOTAL ATOMIC CHARGES:
  14.6459974  14.6411195  15.6235700  15.6272900  15.5725840  15.5722715
  14.1580757  14.1590920
 TTTTTTTTTTTTTTTTTTTTTTTTTTTTTT MOQGAD      TELAPSE    34508.78 TCPU    34426.56
 TTTTTTTTTTTTTTTTTTTTTTTTTTTTTT SHELLXN     TELAPSE    35173.86 TCPU    35090.05
 TTTTTTTTTTTTTTTTTTTTTTTTTTTTTT MONMO3      TELAPSE    35290.16 TCPU    35206.08
 NUMERICALLY INTEGRATED DENSITY    119.9989370366
 TTTTTTTTTTTTTTTTTTTTTTTTTTTTTT NUMDFT      TELAPSE    35292.75 TCPU    35208.66
 CYC  44 ETOT(AU) -2.958065310487E+03 DETOT -1.58E-01 tst  1.84E-02 PX  1.86E+01
 ANDERSON MIX: BETA=  -4.223916379492E-02
 TTTTTTTTTTTTTTTTTTTTTTTTTTTTTT FDIK        TELAPSE    35292.97 TCPU    35208.88
 POSSIBLY CONDUCTING STATE - EFERMI(AU) -2.1632992E+00 (RES. CHARGE  9.11E-12;IT. 14)
 TTTTTTTTTTTTTTTTTTTTTTTTTTTTTT PDIG        TELAPSE    35293.02 TCPU    35208.93
 CHARGE NORMALIZATION FACTOR   1.00000000
 TOTAL ATOMIC CHARGES:
  14.6442139  14.6406220  15.6233672  15.6262889  15.5744296  15.5762465
  14.1569775  14.1578545
 TTTTTTTTTTTTTTTTTTTTTTTTTTTTTT MOQGAD      TELAPSE    35293.03 TCPU    35208.94
 TTTTTTTTTTTTTTTTTTTTTTTTTTTTTT SHELLXN     TELAPSE    35960.45 TCPU    35874.77
 TTTTTTTTTTTTTTTTTTTTTTTTTTTTTT MONMO3      TELAPSE    36074.18 TCPU    35988.23
 NUMERICALLY INTEGRATED DENSITY    119.9989367124
 TTTTTTTTTTTTTTTTTTTTTTTTTTTTTT NUMDFT      TELAPSE    36076.79 TCPU    35990.83
 CYC  45 ETOT(AU) -2.958179008529E+03 DETOT -1.14E-01 tst  4.54E-03 PX  6.38E+00
 ANDERSON MIX: BETA=   1.424837803517E+00
 TTTTTTTTTTTTTTTTTTTTTTTTTTTTTT FDIK        TELAPSE    36077.02 TCPU    35991.06
 POSSIBLY CONDUCTING STATE - EFERMI(AU) -2.1633086E+00 (RES. CHARGE  9.77E-11;IT. 10)
 TTTTTTTTTTTTTTTTTTTTTTTTTTTTTT PDIG        TELAPSE    36077.07 TCPU    35991.11
 CHARGE NORMALIZATION FACTOR   1.00000000
 TOTAL ATOMIC CHARGES:
  14.6419734  14.6396050  15.6214470  15.6244048  15.5748273  15.5769262
  14.1599982  14.1608182
 TTTTTTTTTTTTTTTTTTTTTTTTTTTTTT MOQGAD      TELAPSE    36077.08 TCPU    35991.12
 TTTTTTTTTTTTTTTTTTTTTTTTTTTTTT SHELLXN     TELAPSE    36744.35 TCPU    36656.81
 TTTTTTTTTTTTTTTTTTTTTTTTTTTTTT MONMO3      TELAPSE    36858.22 TCPU    36770.40
 NUMERICALLY INTEGRATED DENSITY    119.9989368419
 TTTTTTTTTTTTTTTTTTTTTTTTTTTTTT NUMDFT      TELAPSE    36860.81 TCPU    36772.99
 CYC  46 ETOT(AU) -2.958122815122E+03 DETOT  5.62E-02 tst  9.49E-04 PX  3.53E+00
 ANDERSON MIX: BETA=   8.518282459465E-01
 TTTTTTTTTTTTTTTTTTTTTTTTTTTTTT FDIK        TELAPSE    36861.01 TCPU    36773.18
 POSSIBLY CONDUCTING STATE - EFERMI(AU) -2.1610127E+00 (RES. CHARGE  4.12E-13;IT.  8)
 TTTTTTTTTTTTTTTTTTTTTTTTTTTTTT PDIG        TELAPSE    36861.06 TCPU    36773.24
 CHARGE NORMALIZATION FACTOR   1.00000000
 TOTAL ATOMIC CHARGES:
  14.6456448  14.6437578  15.6254922  15.6278418  15.5734744  15.5750806
  14.1533798  14.1553287
 TTTTTTTTTTTTTTTTTTTTTTTTTTTTTT MOQGAD      TELAPSE    36861.07 TCPU    36773.25
 TTTTTTTTTTTTTTTTTTTTTTTTTTTTTT SHELLXN     TELAPSE    37528.34 TCPU    37438.92
 TTTTTTTTTTTTTTTTTTTTTTTTTTTTTT MONMO3      TELAPSE    37642.53 TCPU    37552.84
 NUMERICALLY INTEGRATED DENSITY    119.9989363753
 TTTTTTTTTTTTTTTTTTTTTTTTTTTTTT NUMDFT      TELAPSE    37645.12 TCPU    37555.43
 CYC  47 ETOT(AU) -2.958274596237E+03 DETOT -1.52E-01 tst  8.49E-03 PX  8.55E+00
 ANDERSON MIX: BETA=   5.841247409756E-01
 TTTTTTTTTTTTTTTTTTTTTTTTTTTTTT FDIK        TELAPSE    37645.38 TCPU    37555.68
 POSSIBLY CONDUCTING STATE - EFERMI(AU) -2.1605174E+00 (RES. CHARGE  7.82E-14;IT.  8)
 TTTTTTTTTTTTTTTTTTTTTTTTTTTTTT PDIG        TELAPSE    37645.43 TCPU    37555.73
 CHARGE NORMALIZATION FACTOR   1.00000000
 TOTAL ATOMIC CHARGES:
  14.6461442  14.6435414  15.6244790  15.6271139  15.5733445  15.5755511
  14.1539510  14.1558749
 TTTTTTTTTTTTTTTTTTTTTTTTTTTTTT MOQGAD      TELAPSE    37645.44 TCPU    37555.74
 TTTTTTTTTTTTTTTTTTTTTTTTTTTTTT SHELLXN     TELAPSE    38312.75 TCPU    38221.47
 TTTTTTTTTTTTTTTTTTTTTTTTTTTTTT MONMO3      TELAPSE    38426.84 TCPU    38335.29
 NUMERICALLY INTEGRATED DENSITY    119.9989363074
 TTTTTTTTTTTTTTTTTTTTTTTTTTTTTT NUMDFT      TELAPSE    38429.44 TCPU    38337.89
 CYC  48 ETOT(AU) -2.958293805073E+03 DETOT -1.92E-02 tst  5.83E-05 PX  7.13E-01
 ANDERSON MIX: BETA=  -6.162836999534E+00
 TTTTTTTTTTTTTTTTTTTTTTTTTTTTTT FDIK        TELAPSE    38429.65 TCPU    38338.09
 POSSIBLY CONDUCTING STATE - EFERMI(AU) -2.1546273E+00 (RES. CHARGE  4.88E-10;IT.  6)
 TTTTTTTTTTTTTTTTTTTTTTTTTTTTTT PDIG        TELAPSE    38429.71 TCPU    38338.15
 CHARGE NORMALIZATION FACTOR   1.00000000
 TOTAL ATOMIC CHARGES:
  14.6481776  14.6455436  15.6283837  15.6308471  15.5750186  15.5772937
  14.1465615  14.1481741
 TTTTTTTTTTTTTTTTTTTTTTTTTTTTTT MOQGAD      TELAPSE    38429.72 TCPU    38338.16
 TTTTTTTTTTTTTTTTTTTTTTTTTTTTTT SHELLXN     TELAPSE    39095.42 TCPU    39002.27
 TTTTTTTTTTTTTTTTTTTTTTTTTTTTTT MONMO3      TELAPSE    39211.43 TCPU    39118.01
 NUMERICALLY INTEGRATED DENSITY    119.9989356882
 TTTTTTTTTTTTTTTTTTTTTTTTTTTTTT NUMDFT      TELAPSE    39214.03 TCPU    39120.60
 CYC  49 ETOT(AU) -2.958503733181E+03 DETOT -2.10E-01 tst  1.11E-02 PX  9.23E+00
 ANDERSON MIX: BETA=   1.848896187840E+00
 TTTTTTTTTTTTTTTTTTTTTTTTTTTTTT FDIK        TELAPSE    39214.24 TCPU    39120.81
 POSSIBLY CONDUCTING STATE - EFERMI(AU) -2.1630750E+00 (RES. CHARGE  1.76E-12;IT. 12)
 TTTTTTTTTTTTTTTTTTTTTTTTTTTTTT PDIG        TELAPSE    39214.29 TCPU    39120.86
 CHARGE NORMALIZATION FACTOR   1.00000000
 TOTAL ATOMIC CHARGES:
  14.6494112  14.6445640  15.6279124  15.6296260  15.5706925  15.5722823
  14.1514766  14.1540350
 TTTTTTTTTTTTTTTTTTTTTTTTTTTTTT MOQGAD      TELAPSE    39214.30 TCPU    39120.87
 TTTTTTTTTTTTTTTTTTTTTTTTTTTTTT SHELLXN     TELAPSE    39879.09 TCPU    39784.08
 TTTTTTTTTTTTTTTTTTTTTTTTTTTTTT MONMO3      TELAPSE    39998.84 TCPU    39903.54
 NUMERICALLY INTEGRATED DENSITY    119.9989365062
 TTTTTTTTTTTTTTTTTTTTTTTTTTTTTT NUMDFT      TELAPSE    40001.43 TCPU    39906.12
 CYC  50 ETOT(AU) -2.958224256539E+03 DETOT  2.79E-01 tst  1.60E-02 PX  1.20E+01
 ANDERSON MIX: BETA=  -2.140555336269E+00
 TTTTTTTTTTTTTTTTTTTTTTTTTTTTTT FDIK        TELAPSE    40001.64 TCPU    39906.34
 POSSIBLY CONDUCTING STATE - EFERMI(AU) -2.1672469E+00 (RES. CHARGE  6.96E-10;IT. 12)
 TTTTTTTTTTTTTTTTTTTTTTTTTTTTTT PDIG        TELAPSE    40001.70 TCPU    39906.39
 CHARGE NORMALIZATION FACTOR   1.00000000
 TOTAL ATOMIC CHARGES:
  14.6502916  14.6500037  15.6401059  15.6427208  15.5589209  15.5590465
  14.1513140  14.1475966
 TTTTTTTTTTTTTTTTTTTTTTTTTTTTTT MOQGAD      TELAPSE    40001.71 TCPU    39906.40
 TTTTTTTTTTTTTTTTTTTTTTTTTTTTTT SHELLXN     TELAPSE    40666.57 TCPU    40569.69
 TTTTTTTTTTTTTTTTTTTTTTTTTTTTTT MONMO3      TELAPSE    40786.59 TCPU    40689.42
 NUMERICALLY INTEGRATED DENSITY    119.9989381124
 TTTTTTTTTTTTTTTTTTTTTTTTTTTTTT NUMDFT      TELAPSE    40789.19 TCPU    40692.01
 CYC  51 ETOT(AU) -2.957714357803E+03 DETOT  5.10E-01 tst  7.95E-02 PX  2.61E+01
 ANDERSON MIX: BETA=   1.879141241325E+00
 TTTTTTTTTTTTTTTTTTTTTTTTTTTTTT FDIK        TELAPSE    40789.40 TCPU    40692.22
 POSSIBLY CONDUCTING STATE - EFERMI(AU) -2.1424742E+00 (RES. CHARGE  2.27E-12;IT.  8)
 TTTTTTTTTTTTTTTTTTTTTTTTTTTTTT PDIG        TELAPSE    40789.45 TCPU    40692.27
 CHARGE NORMALIZATION FACTOR   1.00000000
 TOTAL ATOMIC CHARGES:
  14.6754563  14.6718477  15.6297050  15.6332786  15.5568740  15.5624220
  14.1322362  14.1381802
 TTTTTTTTTTTTTTTTTTTTTTTTTTTTTT MOQGAD      TELAPSE    40789.46 TCPU    40692.28
 TTTTTTTTTTTTTTTTTTTTTTTTTTTTTT SHELLXN     TELAPSE    41454.64 TCPU    41355.88
 TTTTTTTTTTTTTTTTTTTTTTTTTTTTTT MONMO3      TELAPSE    41574.28 TCPU    41475.24
 NUMERICALLY INTEGRATED DENSITY    119.9989350722
 TTTTTTTTTTTTTTTTTTTTTTTTTTTTTT NUMDFT      TELAPSE    41576.88 TCPU    41477.83
 CYC  52 ETOT(AU) -2.958751330764E+03 DETOT -1.04E+00 tst  2.37E+00 PX  5.01E+01
 ANDERSON MIX: BETA=   2.107201173437E+00
 TTTTTTTTTTTTTTTTTTTTTTTTTTTTTT FDIK        TELAPSE    41577.09 TCPU    41478.04
 POSSIBLY CONDUCTING STATE - EFERMI(AU) -2.1883971E+00 (RES. CHARGE  7.11E-15;IT. 12)
 TTTTTTTTTTTTTTTTTTTTTTTTTTTTTT PDIG        TELAPSE    41577.14 TCPU    41478.09
 CHARGE NORMALIZATION FACTOR   1.00000000
 TOTAL ATOMIC CHARGES:
  14.6278005  14.6140288  15.6320544  15.6261868  15.5839107  15.5761866
  14.1623912  14.1774410
 TTTTTTTTTTTTTTTTTTTTTTTTTTTTTT MOQGAD      TELAPSE    41577.16 TCPU    41478.10
 TTTTTTTTTTTTTTTTTTTTTTTTTTTTTT SHELLXN     TELAPSE    42241.99 TCPU    42141.36
 TTTTTTTTTTTTTTTTTTTTTTTTTTTTTT MONMO3      TELAPSE    42362.07 TCPU    42261.15
 NUMERICALLY INTEGRATED DENSITY    119.9989390862
 TTTTTTTTTTTTTTTTTTTTTTTTTTTTTT NUMDFT      TELAPSE    42364.67 TCPU    42263.74
 CYC  53 ETOT(AU) -2.957098789945E+03 DETOT  1.65E+00 tst  1.82E+00 PX  1.12E+02
 ANDERSON MIX: BETA=   3.951537039170E-01
 TTTTTTTTTTTTTTTTTTTTTTTTTTTTTT FDIK        TELAPSE    42364.89 TCPU    42263.96
 POSSIBLY CONDUCTING STATE - EFERMI(AU) -2.1665296E+00 (RES. CHARGE  7.71E-11;IT. 10)
 TTTTTTTTTTTTTTTTTTTTTTTTTTTTTT PDIG        TELAPSE    42364.94 TCPU    42264.01
 CHARGE NORMALIZATION FACTOR   1.00000000
 TOTAL ATOMIC CHARGES:
  14.6573250  14.6535850  15.6352902  15.6316353  15.5562634  15.5605108
  14.1530635  14.1523268
 TTTTTTTTTTTTTTTTTTTTTTTTTTTTTT MOQGAD      TELAPSE    42364.95 TCPU    42264.02
 TTTTTTTTTTTTTTTTTTTTTTTTTTTTTT SHELLXN     TELAPSE    43029.62 TCPU    42927.11
 TTTTTTTTTTTTTTTTTTTTTTTTTTTTTT MONMO3      TELAPSE    43150.00 TCPU    43047.20
 NUMERICALLY INTEGRATED DENSITY    119.9989385671
 TTTTTTTTTTTTTTTTTTTTTTTTTTTTTT NUMDFT      TELAPSE    43152.59 TCPU    43049.79
 CYC  54 ETOT(AU) -2.957563063173E+03 DETOT -4.64E-01 tst  2.79E-01 PX  4.62E+01
 ANDERSON MIX: BETA=   3.925174233188E-01
 TTTTTTTTTTTTTTTTTTTTTTTTTTTTTT FDIK        TELAPSE    43152.82 TCPU    43050.01
 POSSIBLY CONDUCTING STATE - EFERMI(AU) -2.1723187E+00 (RES. CHARGE  2.13E-14;IT. 12)
 TTTTTTTTTTTTTTTTTTTTTTTTTTTTTT PDIG        TELAPSE    43152.87 TCPU    43050.06
 CHARGE NORMALIZATION FACTOR   1.00000000
 TOTAL ATOMIC CHARGES:
  14.6505496  14.6478846  15.6333771  15.6311485  15.5646028  15.5632672
  14.1561355  14.1530347
 TTTTTTTTTTTTTTTTTTTTTTTTTTTTTT MOQGAD      TELAPSE    43152.88 TCPU    43050.07
 TTTTTTTTTTTTTTTTTTTTTTTTTTTTTT SHELLXN     TELAPSE    43818.04 TCPU    43713.65
 TTTTTTTTTTTTTTTTTTTTTTTTTTTTTT MONMO3      TELAPSE    43937.81 TCPU    43833.14
 NUMERICALLY INTEGRATED DENSITY    119.9989386378
 TTTTTTTTTTTTTTTTTTTTTTTTTTTTTT NUMDFT      TELAPSE    43940.40 TCPU    43835.72
 CYC  55 ETOT(AU) -2.957472031860E+03 DETOT  9.10E-02 tst  6.15E-02 PX  2.03E+01
 ANDERSON MIX: BETA=  -1.166920648262E+00
 TTTTTTTTTTTTTTTTTTTTTTTTTTTTTT FDIK        TELAPSE    43940.62 TCPU    43835.94
 POSSIBLY CONDUCTING STATE - EFERMI(AU) -2.1733289E+00 (RES. CHARGE  3.03E-07;IT. 53)
 TTTTTTTTTTTTTTTTTTTTTTTTTTTTTT PDIG        TELAPSE    43940.67 TCPU    43835.99
 CHARGE NORMALIZATION FACTOR   1.00000001
 TOTAL ATOMIC CHARGES:
  14.6332880  14.6312369  15.6282322  15.6267899  15.5712920  15.5685313
  14.1752407  14.1653891
 TTTTTTTTTTTTTTTTTTTTTTTTTTTTTT MOQGAD      TELAPSE    43940.68 TCPU    43836.00
 TTTTTTTTTTTTTTTTTTTTTTTTTTTTTT SHELLXN     TELAPSE    44605.31 TCPU    44499.05
 TTTTTTTTTTTTTTTTTTTTTTTTTTTTTT MONMO3      TELAPSE    44725.50 TCPU    44618.95
 NUMERICALLY INTEGRATED DENSITY    119.9989380492
 TTTTTTTTTTTTTTTTTTTTTTTTTTTTTT NUMDFT      TELAPSE    44728.09 TCPU    44621.54
 CYC  56 ETOT(AU) -2.957525901939E+03 DETOT -5.39E-02 tst  3.01E-02 PX  2.47E+01
 ANDERSON MIX: BETA=   5.931614991401E-01
 TTTTTTTTTTTTTTTTTTTTTTTTTTTTTT FDIK        TELAPSE    44728.31 TCPU    44621.76
 POSSIBLY CONDUCTING STATE - EFERMI(AU) -2.1709150E+00 (RES. CHARGE  2.12E-10;IT.  8)
 TTTTTTTTTTTTTTTTTTTTTTTTTTTTTT PDIG        TELAPSE    44728.36 TCPU    44621.81
 CHARGE NORMALIZATION FACTOR   1.00000000
 TOTAL ATOMIC CHARGES:
  14.6525784  14.6489556  15.6297449  15.6276237  15.5616578  15.5615789
  14.1601042  14.1577565
 TTTTTTTTTTTTTTTTTTTTTTTTTTTTTT MOQGAD      TELAPSE    44728.37 TCPU    44621.82
 TTTTTTTTTTTTTTTTTTTTTTTTTTTTTT SHELLXN     TELAPSE    45393.05 TCPU    45284.91
 TTTTTTTTTTTTTTTTTTTTTTTTTTTTTT MONMO3      TELAPSE    45509.96 TCPU    45401.54
 NUMERICALLY INTEGRATED DENSITY    119.9989382993
 TTTTTTTTTTTTTTTTTTTTTTTTTTTTTT NUMDFT      TELAPSE    45512.55 TCPU    45404.12
 CYC  57 ETOT(AU) -2.957536706881E+03 DETOT -1.08E-02 tst  1.65E-02 PX  1.23E+01
 ANDERSON MIX: BETA=   3.462291426561E-01
 TTTTTTTTTTTTTTTTTTTTTTTTTTTTTT FDIK        TELAPSE    45512.78 TCPU    45404.34
 POSSIBLY CONDUCTING STATE - EFERMI(AU) -2.1706751E+00 (RES. CHARGE  5.24E-11;IT. 10)
 TTTTTTTTTTTTTTTTTTTTTTTTTTTTTT PDIG        TELAPSE    45512.83 TCPU    45404.39
 CHARGE NORMALIZATION FACTOR   1.00000000
 TOTAL ATOMIC CHARGES:
  14.6526437  14.6495179  15.6291658  15.6265853  15.5615786  15.5608630
  14.1619023  14.1577434
 TTTTTTTTTTTTTTTTTTTTTTTTTTTTTT MOQGAD      TELAPSE    45512.84 TCPU    45404.41
 TTTTTTTTTTTTTTTTTTTTTTTTTTTTTT SHELLXN     TELAPSE    46177.44 TCPU    46067.43
 TTTTTTTTTTTTTTTTTTTTTTTTTTTTTT MONMO3      TELAPSE    46293.84 TCPU    46183.55
 NUMERICALLY INTEGRATED DENSITY    119.9989380108
 TTTTTTTTTTTTTTTTTTTTTTTTTTTTTT NUMDFT      TELAPSE    46296.43 TCPU    46186.14
 CYC  58 ETOT(AU) -2.957600174090E+03 DETOT -6.35E-02 tst  1.83E-03 PX  6.89E+00
 ANDERSON MIX: BETA=  -8.861956767285E+00
 TTTTTTTTTTTTTTTTTTTTTTTTTTTTTT FDIK        TELAPSE    46296.66 TCPU    46186.36
 POSSIBLY CONDUCTING STATE - EFERMI(AU) -2.1724732E+00 (RES. CHARGE  2.48E-07;IT. 35)
 TTTTTTTTTTTTTTTTTTTTTTTTTTTTTT PDIG        TELAPSE    46296.71 TCPU    46186.42
 CHARGE NORMALIZATION FACTOR   1.00000000
 TOTAL ATOMIC CHARGES:
  14.6531770  14.6392957  15.5920864  15.5923893  15.5865821  15.5769452
  14.1840537  14.1754708
 TTTTTTTTTTTTTTTTTTTTTTTTTTTTTT MOQGAD      TELAPSE    46296.73 TCPU    46186.43
 TTTTTTTTTTTTTTTTTTTTTTTTTTTTTT SHELLXN     TELAPSE    46961.33 TCPU    46849.45
 TTTTTTTTTTTTTTTTTTTTTTTTTTTTTT MONMO3      TELAPSE    47077.68 TCPU    46965.52
 NUMERICALLY INTEGRATED DENSITY    119.9989341546
 TTTTTTTTTTTTTTTTTTTTTTTTTTTTTT NUMDFT      TELAPSE    47080.27 TCPU    46968.11
 CYC  59 ETOT(AU) -2.958379807116E+03 DETOT -7.80E-01 tst  8.15E-01 PX  5.78E+01
 ANDERSON MIX: BETA=   8.070128168289E-01
 TTTTTTTTTTTTTTTTTTTTTTTTTTTTTT FDIK        TELAPSE    47080.49 TCPU    46968.33
 POSSIBLY CONDUCTING STATE - EFERMI(AU) -2.1702465E+00 (RES. CHARGE  1.10E-10;IT. 10)
 TTTTTTTTTTTTTTTTTTTTTTTTTTTTTT PDIG        TELAPSE    47080.54 TCPU    46968.38
 CHARGE NORMALIZATION FACTOR   1.00000000
 TOTAL ATOMIC CHARGES:
  14.6512141  14.6525143  15.6260732  15.6227881  15.5701578  15.5616133
  14.1552941  14.1603450
 TTTTTTTTTTTTTTTTTTTTTTTTTTTTTT MOQGAD      TELAPSE    47080.55 TCPU    46968.39
 TTTTTTTTTTTTTTTTTTTTTTTTTTTTTT SHELLXN     TELAPSE    47745.08 TCPU    47631.33

 ::: DIPOLE MOMENT ALONG NON PERIODIC DIRECTIONS:
 ::: A.U.     (Z) -4.40163E+00
 ::: DEBYE         1.11878E+01

 +++ ENERGIES IN A.U. +++
 ::: EXT EL-POLE                                  -2.4063633621076E+04
 ::: EXT EL-SPHEROPOLE                             0.0000000000000E+00
 ::: BIELET ZONE E-E                               1.8239686217530E+04
 ::: TOTAL E-E                                    -5.8239474035455E+03
 ::: TOTAL E-N + N-E                               6.7635307859600E+03
 ::: TOTAL N-N                                    -6.5075937659180E+03
[...]
      3 T  15 P    -2.500017458302E-01  9.302461851603E-02  2.156745582337E+00
      4 T  15 P     2.500000000000E-01  4.213700000000E-01  2.170000000000E+00
      5 T  15 P     2.499989363472E-01 -4.067107020224E-01 -1.528381919703E+00
      6 T  15 P    -2.500000000000E-01 -7.863000000000E-02 -1.550000000000E+00
      7 T  15 P    -2.499958901337E-01  9.352196624615E-02 -3.653970539933E+00
      8 T  15 P     2.500049405974E-01  4.208495079714E-01 -3.637607221394E+00

 T = ATOM BELONGING TO THE ASYMMETRIC UNIT

 TOTAL ENERGY(DFT)(AU)(  7) -2.7301156724237E+03     DE (AU)   -1.950E-05

 UPDATED TRUST RADIUS     0.946E+00

 SYMMETRY ALLOWED FORCES  (COORDINATE, FORCE)

    1  1.1281031E-06    2  8.4209330E-05    3  3.2886139E-04    4  1.3144622E-06
    5 -1.1425504E-04    6 -2.8437141E-04    7 -6.5976171E-07    8  3.5904453E-04
    9 -5.2635588E-04   10  9.4525794E-07   11  3.2666709E-05   12  2.3435264E-04
   13 -8.2846765E-07   14  1.1154571E-04   15 -8.3516628E-05   16 -7.7259747E-07
   17 -3.1351330E-05   18  1.6028388E-05   19 -2.7424749E-04   20 -2.5167511E-04
   21  1.2535681E-06

 GRADIENT NORM     0.000911  GRADIENT THRESHOLD     0.500000

 EIGENVALUES OF THE ESTIMATED HESSIAN
  0.2128E-01  0.2695E-01  0.2906E-01  0.2941E-01  0.3424E-01  0.4820E-01
  0.6079E-01  0.7147E-01  0.1271      0.1476      0.1695      0.1808    
  0.1911      0.1986      0.2464      0.2916      0.3057      0.3114    
  0.3254      0.4295      0.4515    

 PREDICTED ENERGY CHANGE    -0.856E-05

 MAX GRADIENT      0.000526  THRESHOLD              0.000450 CONVERGED NO
 RMS GRADIENT      0.000199  THRESHOLD              0.000300 CONVERGED YES
 MAX DISPLAC.      0.014230  THRESHOLD              0.001800 CONVERGED NO
 RMS DISPLAC.      0.005434  THRESHOLD              0.001200 CONVERGED NO
 TTTTTTTTTTTTTTTTTTTTTTTTTTTTTT OPTI        TELAPSE   113755.02 TCPU   113484.10
 *******************************************************************************
 COORDINATE AND CELL OPTIMIZATION - POINT    6
 *******************************************************************************
 LATTICE PARAMETERS (ANGSTROMS AND DEGREES) - BOHR = 0.5291772083 ANGSTROM
 PRIMITIVE CELL
         A              B              C           ALPHA      BETA       GAMMA 
     3.30875518     4.50649626   500.00000000    90.000000  90.000000  89.999906
 *******************************************************************************
 ATOMS IN THE ASYMMETRIC UNIT    8 - ATOMS IN THE UNIT CELL:    8
     ATOM                 X/A                 Y/B             Z(ANGSTROM)
 *******************************************************************************
      1 T  15 P     2.499947526945E-01 -4.061445069596E-01  4.273494773947E+00
      2 T  15 P    -2.500048992748E-01 -7.916850975710E-02  4.258611073880E+00
      3 T  15 P    -2.499994082291E-01  9.377679870044E-02  2.149753553091E+00
      4 T  15 P     2.500000000000E-01  4.213700000000E-01  2.170000000000E+00
      5 T  15 P     2.500000614209E-01 -4.064195627044E-01 -1.525063738418E+00
      6 T  15 P    -2.500000000000E-01 -7.863000000000E-02 -1.550000000000E+00
      7 T  15 P    -2.500002311306E-01  9.418235597021E-02 -3.653343738466E+00
      8 T  15 P     2.499991707941E-01  4.211981601411E-01 -3.634286020882E+00

 T = ATOM BELONGING TO THE ASYMMETRIC UNIT

 TOTAL ENERGY(DFT)(AU)(  7) -2.7301156824454E+03     DE (AU)   -1.002E-05

 UPDATED TRUST RADIUS     0.189E+01

 SYMMETRY ALLOWED FORCES  (COORDINATE, FORCE)

    1  1.4425906E-06    2 -2.7704827E-05    3  1.0093163E-04    4  2.8867696E-07
    5  1.7307005E-04    6 -1.1282539E-04    7 -8.5480550E-07    8 -3.8845606E-04
    9 -2.2038197E-04   10  1.8948135E-07   11  3.3857162E-05   12  1.1001059E-05
   13  1.9684579E-07   14 -1.3059922E-04   15 -4.2938982E-05   16  6.2464700E-08
   17 -2.2512393E-05   18  4.6817688E-05   19  5.8652395E-04   20  4.9716270E-04
   21 -1.6014688E-06

 GRADIENT NORM     0.000931  GRADIENT THRESHOLD     0.500000

 EIGENVALUES OF THE ESTIMATED HESSIAN
  0.2073E-01  0.2695E-01  0.2854E-01  0.2941E-01  0.3310E-01  0.4690E-01
  0.6168E-01  0.7147E-01  0.1307      0.1484      0.1695      0.1808    
  0.1911      0.2043      0.2676      0.2914      0.3057      0.3129    
  0.3256      0.4515      0.4648    

 PREDICTED ENERGY CHANGE    -0.187E-05

 MAX GRADIENT      0.000587  THRESHOLD              0.000450 CONVERGED NO
 RMS GRADIENT      0.000203  THRESHOLD              0.000300 CONVERGED YES
 MAX DISPLAC.      0.003674  THRESHOLD              0.001800 CONVERGED NO
 RMS DISPLAC.      0.001360  THRESHOLD              0.001200 CONVERGED NO
 TTTTTTTTTTTTTTTTTTTTTTTTTTTTTT OPTI        TELAPSE   125096.37 TCPU   124798.44
 *******************************************************************************
 COORDINATE AND CELL OPTIMIZATION - POINT    7
 *******************************************************************************
 LATTICE PARAMETERS (ANGSTROMS AND DEGREES) - BOHR = 0.5291772083 ANGSTROM
 PRIMITIVE CELL
         A              B              C           ALPHA      BETA       GAMMA 
     3.31024012     4.50453163   500.00000000    90.000000  90.000000  90.000024
 *******************************************************************************
 ATOMS IN THE ASYMMETRIC UNIT    8 - ATOMS IN THE UNIT CELL:    8
     ATOM                 X/A                 Y/B             Z(ANGSTROM)
 *******************************************************************************
      1 T  15 P     2.499961222118E-01 -4.061562552959E-01  4.273585376976E+00
      2 T  15 P    -2.500033708150E-01 -7.910353721508E-02  4.257008863283E+00
      3 T  15 P    -2.499998801641E-01  9.362791531860E-02  2.148016390521E+00
      4 T  15 P     2.500000000000E-01  4.213700000000E-01  2.170000000000E+00
      5 T  15 P     2.499997025361E-01 -4.064729807300E-01 -1.524760951480E+00
      6 T  15 P    -2.500000000000E-01 -7.863000000000E-02 -1.550000000000E+00
      7 T  15 P    -2.500003808621E-01  9.401274927305E-02 -3.653432788394E+00
      8 T  15 P     2.499995482037E-01  4.210862836993E-01 -3.634048112192E+00

 T = ATOM BELONGING TO THE ASYMMETRIC UNIT

 TOTAL ENERGY(DFT)(AU)(  3) -2.7301156852219E+03     DE (AU)   -2.776E-06

 UPDATED TRUST RADIUS     0.378E+01

 SYMMETRY ALLOWED FORCES  (COORDINATE, FORCE)

    1  7.7871550E-07    2 -5.0612290E-05    3  8.4402188E-05    4  3.3213186E-07
    5  1.1298044E-04    6 -4.7891150E-05    7 -7.3116814E-07    8 -2.1553158E-04
    9 -1.8388520E-04   10  2.3381272E-08   11 -2.0409307E-05   12  3.9418998E-05
   13 -8.7247834E-08   14 -8.0351006E-05   15 -6.0374785E-05   16  1.5061924E-07
   17  2.0718045E-05   18  2.3362880E-05   19  2.3043757E-04   20 -9.9022835E-07
   21  4.2571907E-07

 GRADIENT NORM     0.000414  GRADIENT THRESHOLD     0.500000

 EIGENVALUES OF THE ESTIMATED HESSIAN
  0.1691E-01  0.2695E-01  0.2773E-01  0.2941E-01  0.3158E-01  0.4601E-01
  0.6441E-01  0.7147E-01  0.1267      0.1527      0.1695      0.1845    
  0.1905      0.1911      0.2730      0.2998      0.3057      0.3071    
  0.3253      0.4094      0.4515    

 PREDICTED ENERGY CHANGE    -0.948E-06

 MAX GRADIENT      0.000230  THRESHOLD              0.000450 CONVERGED YES
 RMS GRADIENT      0.000090  THRESHOLD              0.000300 CONVERGED YES
 MAX DISPLAC.      0.005940  THRESHOLD              0.001800 CONVERGED NO
 RMS DISPLAC.      0.001870  THRESHOLD              0.001200 CONVERGED NO
 TTTTTTTTTTTTTTTTTTTTTTTTTTTTTT OPTI        TELAPSE   133249.26 TCPU   132931.91
 *******************************************************************************
 COORDINATE AND CELL OPTIMIZATION - POINT    8
 *******************************************************************************
 LATTICE PARAMETERS (ANGSTROMS AND DEGREES) - BOHR = 0.5291772083 ANGSTROM
 PRIMITIVE CELL
         A              B              C           ALPHA      BETA       GAMMA 
     3.31070382     4.50482150   500.00000000    90.000000  90.000000  90.000003
 *******************************************************************************
 ATOMS IN THE ASYMMETRIC UNIT    8 - ATOMS IN THE UNIT CELL:    8
     ATOM                 X/A                 Y/B             Z(ANGSTROM)
 *******************************************************************************
      1 T  15 P     2.499992445824E-01 -4.061445876399E-01  4.273625456092E+00
      2 T  15 P    -2.500007950377E-01 -7.909513695558E-02  4.254127853831E+00
      3 T  15 P    -2.499997712997E-01  9.352387751803E-02  2.144873261385E+00
      4 T  15 P     2.500000000000E-01  4.213700000000E-01  2.170000000000E+00
      5 T  15 P     2.499999101657E-01 -4.064620191590E-01 -1.523837011895E+00
      6 T  15 P    -2.500000000000E-01 -7.863000000000E-02 -1.550000000000E+00
      7 T  15 P    -2.500002504948E-01  9.392777142448E-02 -3.653524456998E+00
      8 T  15 P     2.499996674394E-01  4.209849132549E-01 -3.633185328351E+00

 T = ATOM BELONGING TO THE ASYMMETRIC UNIT

 TOTAL ENERGY(DFT)(AU)(  4) -2.7301156863541E+03     DE (AU)   -1.132E-06

 UPDATED TRUST RADIUS     0.400E+01

 SYMMETRY ALLOWED FORCES  (COORDINATE, FORCE)

    1 -1.4096506E-08    2 -4.2809410E-05    3 -1.3376551E-05    4  1.8665365E-07
    5  7.1003995E-05    6 -9.1738139E-07    7 -2.4451985E-07    8 -3.4468459E-05
    9 -1.2653450E-05   10 -4.4535097E-08   11 -4.0491037E-05   12 -1.5762892E-05
   13 -5.2944370E-09   14 -4.3570827E-05   15 -3.6783846E-06   16  1.0167612E-07
   17  4.3149616E-05   18  1.4826711E-05   19 -9.6504914E-05   20  8.1128285E-06
   21  1.5200993E-07

 GRADIENT NORM     0.000154  GRADIENT THRESHOLD     0.500000

 EIGENVALUES OF THE ESTIMATED HESSIAN
  0.1586E-01  0.2695E-01  0.2722E-01  0.2941E-01  0.3123E-01  0.4527E-01
  0.6527E-01  0.7147E-01  0.1338      0.1543      0.1695      0.1846    
  0.1898      0.1911      0.2780      0.3004      0.3057      0.3139    
  0.3257      0.4019      0.4515    

 PREDICTED ENERGY CHANGE    -0.116E-06

 MAX GRADIENT      0.000097  THRESHOLD              0.000450 CONVERGED YES
 RMS GRADIENT      0.000034  THRESHOLD              0.000300 CONVERGED YES
 MAX DISPLAC.      0.001066  THRESHOLD              0.001800 CONVERGED YES
 RMS DISPLAC.      0.000484  THRESHOLD              0.001200 CONVERGED YES

 CONVERGENCE TESTS SATISFIED AFTER   8 ENERGY AND GRADIENT CALCULATIONS
 +++++++++++++++++++++++++++++++++++++++++++++++++++++++++++++++++++++++++++++++
 FINALRUN OPTION: RE-STARTING OPTIMIZATION
 +++++++++++++++++++++++++++++++++++++++++++++++++++++++++++++++++++++++++++++++
 TTTTTTTTTTTTTTTTTTTTTTTTTTTTTT OPTI        TELAPSE   142205.79 TCPU   141867.11
 *******************************************************************************
 COORDINATE AND CELL OPTIMIZATION - POINT    9
 *******************************************************************************
 LATTICE PARAMETERS (ANGSTROMS AND DEGREES) - BOHR = 0.5291772083 ANGSTROM
 PRIMITIVE CELL
         A              B              C           ALPHA      BETA       GAMMA 
     3.31074569     4.50372173   500.00000000    90.000000  90.000000  89.999995
 *******************************************************************************
 ATOMS IN THE ASYMMETRIC UNIT    8 - ATOMS IN THE UNIT CELL:    8
     ATOM                 X/A                 Y/B             Z(ANGSTROM)
 *******************************************************************************
      1 T  15 P     2.499998034822E-01 -4.062007572581E-01  4.273699387498E+00
      2 T  15 P    -2.500002119419E-01 -7.905411219273E-02  4.253806306277E+00
      3 T  15 P    -2.499998399614E-01  9.345994940756E-02  2.144384910382E+00
      4 T  15 P     2.500000000000E-01  4.213700000000E-01  2.170000000000E+00
      5 T  15 P     2.499999314522E-01 -4.065483187197E-01 -1.523786309264E+00
      6 T  15 P    -2.500000000000E-01 -7.863000000000E-02 -1.550000000000E+00
      7 T  15 P    -2.500000472948E-01  9.385349042498E-02 -3.653695130406E+00
      8 T  15 P     2.499998920796E-01  4.209973815861E-01 -3.633227884839E+00

 T = ATOM BELONGING TO THE ASYMMETRIC UNIT

 REFERENCE GEOMETRY WILL BE CHANGED

 TOTAL ENERGY(DFT)(AU)(  3) -2.7301156873813E+03     DE (AU)   -1.027E-06

 SYMMETRY ALLOWED FORCES  (COORDINATE, FORCE)

    1  2.3939666E-08    2  3.8355005E-05    3  4.1942955E-05    4  3.4320749E-08
    5 -3.1642088E-05    6 -9.2073471E-06    7 -1.6639097E-07    8  1.2617904E-05
    9 -4.7203216E-05   10  7.1710104E-08   11  3.9420168E-05   12  3.1641268E-05
   13  2.6241711E-08   14  1.5510144E-05   15 -3.2674934E-05   16 -1.2076404E-09
   17 -3.4742711E-05   18 -5.6884934E-06   19  1.0016445E-04   20  8.0307657E-06
   21 -3.6554428E-08

 GRADIENT NORM     0.000148  GRADIENT THRESHOLD     0.500000

 HESSIAN UPDATE SKIPPED

 EIGENVALUES OF THE ESTIMATED HESSIAN
  0.1586E-01  0.2695E-01  0.2722E-01  0.2941E-01  0.3123E-01  0.4527E-01
  0.6527E-01  0.7147E-01  0.1338      0.1543      0.1695      0.1846    
  0.1898      0.1911      0.2780      0.3004      0.3057      0.3139    
  0.3257      0.4019      0.4515    

 PREDICTED ENERGY CHANGE    -0.979E-07

 MAX GRADIENT      0.000100  THRESHOLD              0.000450 CONVERGED YES
 RMS GRADIENT      0.000032  THRESHOLD              0.000300 CONVERGED YES
 MAX DISPLAC.      0.001385  THRESHOLD              0.001800 CONVERGED YES
 RMS DISPLAC.      0.000513  THRESHOLD              0.001200 CONVERGED YES

 CONVERGENCE TESTS SATISFIED AFTER   9 ENERGY AND GRADIENT CALCULATIONS

 ******************************************************************
 * OPT END - CONVERGED * E(AU):  -2.730115687381E+03  POINTS    9 *
 ******************************************************************

   BAND GAP:                      1.7854  eV 

 EIGENVECTORS IN FORTRAN UNIT  8

 NEIGHBORS OF THE NON-EQUIVALENT ATOMS

 N = NUMBER OF NEIGHBORS AT DISTANCE R
    ATOM  N     R/ANG      R/AU   NEIGHBORS (ATOM LABELS AND CELL INDICES)
   1 P    1     2.2162     4.1880    2 P    0 0 0
   1 P    1     2.2162     4.1880    2 P    1 0 0
   1 P    1     2.2425     4.2376    4 P    0-1 0
   1 P    2     3.3107     6.2564    1 P   -1 0 0    1 P    1 0 0
   1 P    1     3.4531     6.5253    2 P    1-1 0
   1 P    1     3.4531     6.5253    2 P    0-1 0

   2 P    1     2.2162     4.1880    1 P    0 0 0
   2 P    1     2.2162     4.1880    1 P   -1 0 0
   2 P    1     2.2480     4.2480    3 P    0 0 0
   2 P    2     3.3107     6.2564    2 P   -1 0 0    2 P    1 0 0
   2 P    1     3.4531     6.5253    1 P   -1 1 0
   2 P    1     3.4531     6.5253    1 P    0 1 0

   3 P    1     2.2185     4.1924    4 P    0 0 0
   3 P    1     2.2185     4.1924    4 P   -1 0 0
   3 P    1     2.2480     4.2480    2 P    0 0 0
   3 P    2     3.3107     6.2564    3 P   -1 0 0    3 P    1 0 0
   3 P    1     3.4501     6.5197    4 P    0-1 0
   3 P    1     3.4501     6.5197    4 P   -1-1 0

   4 P    1     2.2185     4.1924    3 P    0 0 0
   4 P    1     2.2185     4.1924    3 P    1 0 0
   4 P    1     2.2425     4.2376    1 P    0 1 0
   4 P    2     3.3107     6.2564    4 P   -1 0 0    4 P    1 0 0
   4 P    1     3.4501     6.5197    3 P    0 1 0
   4 P    1     3.4501     6.5197    3 P    1 1 0

   5 P    1     2.2186     4.1925    6 P    0 0 0
   5 P    1     2.2186     4.1925    6 P    1 0 0
   5 P    1     2.2479     4.2479    8 P    0-1 0
   5 P    2     3.3107     6.2564    5 P   -1 0 0    5 P    1 0 0
   5 P    1     3.4501     6.5197    6 P    1-1 0
   5 P    1     3.4501     6.5197    6 P    0-1 0

   6 P    1     2.2186     4.1925    5 P    0 0 0
   6 P    1     2.2186     4.1925    5 P   -1 0 0
   6 P    1     2.2425     4.2378    7 P    0 0 0
   6 P    2     3.3107     6.2564    6 P   -1 0 0    6 P    1 0 0
   6 P    1     3.4501     6.5197    5 P   -1 1 0
   6 P    1     3.4501     6.5197    5 P    0 1 0

   7 P    1     2.2162     4.1880    8 P    0 0 0
   7 P    1     2.2162     4.1880    8 P   -1 0 0
   7 P    1     2.2425     4.2378    6 P    0 0 0
   7 P    2     3.3107     6.2564    7 P   -1 0 0    7 P    1 0 0
   7 P    1     3.4531     6.5254    8 P    0-1 0
   7 P    1     3.4531     6.5254    8 P   -1-1 0

   8 P    1     2.2162     4.1880    7 P    0 0 0
   8 P    1     2.2162     4.1880    7 P    1 0 0
   8 P    1     2.2479     4.2479    5 P    0 1 0
   8 P    2     3.3107     6.2564    8 P   -1 0 0    8 P    1 0 0
   8 P    1     3.4531     6.5254    7 P    0 1 0
   8 P    1     3.4531     6.5254    7 P    1 1 0


 FINAL OPTIMIZED GEOMETRY - DIMENSIONALITY OF THE SYSTEM      2
 (NON PERIODIC DIRECTION: LATTICE PARAMETER FORMALLY SET TO 500)
 *******************************************************************************
 LATTICE PARAMETERS (ANGSTROMS AND DEGREES) - BOHR = 0.5291772083 ANGSTROM
 PRIMITIVE CELL
         A              B              C           ALPHA      BETA       GAMMA 
     3.31074569     4.50372173   500.00000000    90.000000  90.000000  89.999995
 *******************************************************************************
 ATOMS IN THE ASYMMETRIC UNIT    8 - ATOMS IN THE UNIT CELL:    8
     ATOM                 X/A                 Y/B             Z(ANGSTROM)
 *******************************************************************************
      1 T  15 P     2.499998034822E-01 -4.062007572581E-01  4.273699387498E+00
      2 T  15 P    -2.500002119419E-01 -7.905411219273E-02  4.253806306277E+00
      3 T  15 P    -2.499998399614E-01  9.345994940756E-02  2.144384910382E+00
      4 T  15 P     2.500000000000E-01  4.213700000000E-01  2.170000000000E+00
      5 T  15 P     2.499999314522E-01 -4.065483187197E-01 -1.523786309264E+00
      6 T  15 P    -2.500000000000E-01 -7.863000000000E-02 -1.550000000000E+00
      7 T  15 P    -2.500000472948E-01  9.385349042498E-02 -3.653695130406E+00
      8 T  15 P     2.499998920796E-01  4.209973815861E-01 -3.633227884839E+00

 T = ATOM BELONGING TO THE ASYMMETRIC UNIT
 INFORMATION **** fort.34 **** GEOMETRY OUTPUT FILE

 DIRECT LATTICE VECTORS CARTESIAN COMPONENTS (ANGSTROM)
          X                    Y                    Z
   0.331074568927E+01   0.110899564761E-06   0.000000000000E+00
   0.274070554841E-06   0.450372172653E+01   0.000000000000E+00
   0.000000000000E+00   0.000000000000E+00   0.500000000000E+03


 CARTESIAN COORDINATES - PRIMITIVE CELL
 *******************************************************************************
 *      ATOM          X(ANGSTROM)         Y(ANGSTROM)         Z(ANGSTROM)
 *******************************************************************************
    1    15 P     8.276856603689E-01 -1.829415148071E+00  4.273699387498E+00
    2    15 P    -8.276871456692E-01 -3.560377503787E-01  4.253806306277E+00
    3    15 P    -8.276858668552E-01  4.209175769822E-01  2.144384910382E+00
    4    15 P     8.276865378021E-01  1.897733251632E+00  2.170000000000E+00
    5    15 P     8.276860839496E-01 -1.830980468177E+00 -1.523786309264E+00
    6    15 P    -8.276864438672E-01 -3.541276670818E-01 -1.550000000000E+00
    7    15 P    -8.276865531757E-01  4.226899762126E-01 -3.653695130406E+00
    8    15 P     8.276861804029E-01  1.896055081986E+00 -3.633227884839E+00

 ****    1 SYMMOPS - TRANSLATORS IN FRACTIONAL UNITS
 **** MATRICES AND TRANSLATORS IN THE CRYSTALLOGRAPHIC REFERENCE FRAME
   V INV                    ROTATION MATRICES                   TRANSLATORS
   1   1  1.00  0.00  0.00  0.00  1.00  0.00  0.00  0.00  1.00  0.00  0.00  0.00
 TTTTTTTTTTTTTTTTTTTTTTTTTTTTTT END         TELAPSE   149422.75 TCPU   149066.88
 EEEEEEEEEE TERMINATION  DATE 12 02 2019 TIME 10:22:01.0
NODE    0 CPU TIME =    149066.877
NODE    1 CPU TIME =    149066.760
NODE    2 CPU TIME =    149066.979
NODE    3 CPU TIME =    149066.825
NODE    4 CPU TIME =    149067.016
NODE    5 CPU TIME =    149066.803
NODE    6 CPU TIME =    149066.972
NODE    7 CPU TIME =    149066.955
NODE    8 CPU TIME =    149067.020
NODE    9 CPU TIME =    149066.387
NODE   10 CPU TIME =    149067.033
NODE   11 CPU TIME =    149066.932
    TOTAL CPU TIME =   1788802.559
